Created on Wed Jan 10 15:35:37 2024 

        8227 atoms
       11034 bonds
       31236 angles
       11520 dihedrals
        8784 impropers

           8 atom types
           8 bond types
          16 angle types
           3 dihedral types
           1 improper types
           0.000000  53.504400 xlo xhi
           0.000000  50.444400 ylo yhi
           0.000000  80.000000 zlo zhi
           0.000000   0.000000   0.000000 xy xz yz

Masses

    1    91.224000000 # Zr3+4
    2    15.999400000 # O_R
    3    15.999400000 # O_2
    4    15.999400000 # O_3
    5    12.010700000 # C_2
    6    12.010700000 # C_R
    7     1.007940000 # H_
    8     1.007940000 # H_

Bond Coeffs

  1 291.001389	2.222106 	# Zr3+4 O_R
  2 308.999548	2.113039 	# Zr3+4 O_2
  3 299.444644	2.271530 	# Zr3+4 O_3
  4 646.680887	1.276702 	# O_R C_R
  5 559.995206	0.986605 	# O_3 H_
  6 517.346067	1.343642 	# C_2 C_2
  7 389.261715	1.482994 	# C_2 C_R
  8 354.483902	1.088363 	# C_2 H_

Angle Coeffs

    1                      fourier      111.773978        0.343737        0.374972        0.281246 # O_R Zr3+4 O_R
    2                      fourier      115.139800        0.343737        0.374972        0.281246 # O_R Zr3+4 O_2
    3                      fourier      118.687092        0.343737        0.374972        0.281246 # O_2 Zr3+4 O_2
    4                      fourier      116.826851        0.343737        0.374972        0.281246 # O_2 Zr3+4 O_3
    5                      fourier      113.375220        0.343737        0.374972        0.281246 # O_R Zr3+4 O_3
    6                      fourier      115.017042        0.343737        0.374972        0.281246 # O_3 Zr3+4 O_3
    7              cosine/periodic      124.830884              -1               3 # Zr3+4 O_R C_R
    8              cosine/periodic      118.513834              -1               3 # Zr3+4 O_2 Zr3+4
    9                      fourier      122.135708        0.300235        0.267331        0.266745 # Zr3+4 O_3 H_
   10                      fourier      120.499822        0.300235        0.267331        0.266745 # H_ O_3 H_
   11                      fourier      331.855914        0.300235        0.267331        0.266745 # Zr3+4 O_3 Zr3+4
   12              cosine/periodic      107.277537              -1               3 # C_2 C_2 C_R
   13              cosine/periodic       61.080982              -1               3 # C_2 C_2 H_
   14              cosine/periodic       51.271325              -1               3 # C_R C_2 H_
   15              cosine/periodic      187.136328              -1               3 # O_R C_R O_R
   16              cosine/periodic      131.309912              -1               3 # O_R C_R C_2

Dihedral Coeffs

    1        6.737110              -1               2 # Zr3+4 O_R C_R O_R
    2        4.871694              -1               2 # C_R C_2 C_2 C_R
    3        1.250000              -1               2 # C_2 C_2 C_R O_R

Improper Coeffs

    1        2.000000        1.000000       -1.000000        0.000000               0 # Zr3+4 O_2 Zr3+4 Zr3+4

Pair Coeffs

    1        0.069000        2.783168 # Zr3+4 Zr3+4
    2        0.060000        3.118146 # O_R O_R
    3        0.060000        3.118146 # O_2 O_2
    4        0.060000        3.118146 # O_3 O_3
    5        0.105000        3.430851 # C_2 C_2
    6        0.105000        3.430851 # C_R C_R
    7        0.044000        2.571134 # H_ H_
    8        0.044000        2.571134 # H_ H_

Atoms

       1      444        1     2.34200    0.23203    4.71529   54.84080
       2      444        1     2.34296   17.59385   17.32765   54.84160
       3      444        1     2.33879    0.21865    8.22244   55.16320
       4      444        1     2.33561   17.60455   20.83152   55.16640
       5      444        1     2.33008   15.35790    6.31261   56.42080
       6      444        1     2.33445    2.46513   18.92321   56.42240
       7      444        1     2.33706    2.46513    6.30025   57.07360
       8      444        1     2.32608   15.35844   18.91236   57.07440
       9      444        1     2.34829   17.60348    4.39295   58.32960
      10      444        1     2.34283    0.18905   17.07467   58.29680
      11      444        1     2.35770   17.57548    7.89606   58.67680
      12      444        1     2.37603    0.21865   20.52356   58.68400
      13      444        1     2.40519    8.67181   14.25887   61.11920
      14      444        1     2.37724    9.06365    1.55646   61.11200
      15      444        1     2.35631    9.13320   10.71363   61.53040
      16      444        1     2.36617    8.66040   23.33028   61.52320
      17      444        1     2.35971   11.34275   12.90242   63.11680
      18      444        1     2.39145    6.37719    0.34126   63.13920
      19      444        1     2.36160    6.42374   12.34601   63.00240
      20      444        1     2.35795   11.32278   24.90869   62.99040
      21      444        1     2.38443    8.68394   14.55094   64.62080
      22      444        1     2.40368    9.15888    1.94236   64.61120
      23      444        1     2.39688    9.01799   11.03698   65.05760
      24      444        1     2.41286    8.68234   23.55955   65.02400
      25      444        1     2.37973    8.68769    1.58421   23.29600
      26      444        1     2.37896    9.13463   14.20111   23.30240
      27      444        1     2.38182    9.15139   23.30910   23.62480
      28      444        1     2.38033    8.68091   10.70329   23.62720
      29      444        1     2.38204   11.39519    0.32738   25.20720
      30      444        1     2.37933    6.43194   12.93521   25.21200
      31      444        1     2.37974    6.43319   24.90036   25.22800
      32      444        1     2.38249   11.39412   12.28725   25.23280
      33      444        1     2.38058    8.68180    1.91184   26.81200
      34      444        1     2.38155    9.14979   14.52647   26.81600
      35      444        1     2.37840    9.13623   23.63623   27.13840
      36      444        1     2.38044    8.68715   11.02891   27.14320
      37      444        1     2.33954    0.23203    4.71529   29.61760
      38      444        1     2.33853   17.59385   17.32765   29.62000
      39      444        1     2.33914    0.21865    8.22244   29.94080
      40      444        1     2.33502   17.60455   20.83152   29.94400
      41      444        1     2.33503   15.35790    6.31261   31.19920
      42      444        1     2.33727    2.46513   18.92321   31.20000
      43      444        1     2.33665    2.46513    6.30025   31.85200
      44      444        1     2.33704   15.35844   18.91236   31.85280
      45      444        1     2.33892   17.60348    4.39295   33.10800
      46      444        1     2.33815    0.21883   17.00254   33.11040
      47      444        1     2.33899   17.59474    7.89657   33.43200
      48      444        1     2.33870    0.23203   20.50918   33.43360
      49      444        1     2.38103    8.68769   14.19531   35.90640
      50      444        1     2.38038    9.13463    1.59001   35.91360
      51      444        1     2.38095    9.15139   10.69800   36.23600
      52      444        1     2.37989    8.68091   23.31439   36.23760
      53      444        1     2.38139   11.39519   12.93848   37.81920
      54      444        1     2.37999    6.43194    0.32411   37.82320
      55      444        1     2.37899    6.43319   12.28926   37.84000
      56      444        1     2.38030   11.39412   24.89835   37.84400
      57      444        1     2.37939    8.68180   14.52294   39.42320
      58      444        1     2.38027    9.14979    1.91537   39.42720
      59      444        1     2.37861    9.13623   11.02513   39.74960
      60      444        1     2.37974    8.68715   23.64001   39.75440
      61      444        1     2.34001    0.23203   17.32639   42.22880
      62      444        1     2.34151   17.59385    4.71655   42.23040
      63      444        1     2.33345    0.21865   20.83354   42.55200
      64      444        1     2.33276   17.60455    8.22042   42.55520
      65      444        1     2.33756   15.35790   18.92371   43.81040
      66      444        1     2.33400    2.46513    6.31211   43.81120
      67      444        1     2.33864    2.46513   18.91135   44.46240
      68      444        1     2.33627   15.35844    6.30126   44.46400
      69      444        1     2.33570   17.60348   17.00430   45.71840
      70      444        1     2.33468    0.21883    4.39144   45.72160
      71      444        1     2.34008   17.59474   20.50767   46.04400
      72      444        1     2.33797    0.23203    7.89808   46.04480
      73      444        1     2.37997    8.68769    1.58421   48.51760
      74      444        1     2.38080    9.13463   14.20111   48.52480
      75      444        1     2.38054    9.15139   23.30910   48.84720
      76      444        1     2.37900    8.68091   10.70329   48.84880
      77      444        1     2.38126   11.39519    0.32738   50.43040
      78      444        1     2.37955    6.43194   12.93521   50.43360
      79      444        1     2.37890    6.43319   24.90036   50.45040
      80      444        1     2.38050   11.39412   12.28725   50.45440
      81      444        1     2.37801    8.68180    1.91184   52.03360
      82      444        1     2.37908    9.14979   14.52647   52.03760
      83      444        1     2.38044    9.13623   23.63623   52.36000
      84      444        1     2.37975    8.68715   11.02891   52.36480
      85      444        1     2.39034    8.63811   14.16756   10.67520
      86      444        1     2.38714    9.08844    1.55999   10.67760
      87      444        1     2.38517    9.16138   10.66924   11.10320
      88      444        1     2.39526    8.69464   23.25361   10.95360
      89      444        1     2.37888   11.36915   12.94277   12.55520
      90      444        1     2.40745    6.42713    0.26382   12.61760
      91      444        1     2.39348    6.41910   12.24059   12.60080
      92      444        1     2.37303   11.35274   24.91852   12.62800
      93      444        1     2.37683    8.66058   14.49116   14.18720
      94      444        1     2.38761    9.13409    1.89873   14.18800
      95      444        1     2.37823    9.14479   11.02916   14.55520
      96      444        1     2.38052    8.71087   23.61479   14.49680
      97      444        1     2.34662    0.23328   17.31075   17.02240
      98      444        1     2.35379   17.58707    4.69839   17.00160
      99      444        1     2.35999    0.21865   20.83354   17.32960
     100      444        1     2.34991   17.60455    8.22042   17.33280
     101      444        1     2.32926   15.35790   18.92371   18.58800
     102      444        1     2.32909    2.46513    6.31211   18.58880
     103      444        1     2.33019    2.46513   18.91135   19.24080
     104      444        1     2.33953   15.35844    6.30126   19.24160
     105      444        1     2.33425   17.60348   17.00430   20.49600
     106      444        1     2.33394    0.21883    4.39144   20.50000
     107      444        1     2.33808   17.59474   20.50767   20.82080
     108      444        1     2.34683    0.23203    7.89808   20.82240
     109      444        2    -0.58625   16.22610    4.03328   53.75600
     110      444        2    -0.58690    1.59604   16.63606   53.76560
     111      444        2    -0.58040   16.21451    9.05099   54.20880
     112      444        2    -0.58991    1.60139   21.67041   54.21680
     113      444        2    -0.61300    8.69964    1.50375   54.22080
     114      444        2    -0.61399    9.00051   14.11510   54.22960
     115      444        2    -0.59886   15.57370   16.64110   54.31200
     116      444        2    -0.59550    2.26020    4.02168   54.32400
     117      444        2    -0.62792    8.95093   24.46579   54.39840
     118      444        2    -0.62444    8.72354   11.85721   54.39920
     119      444        2    -0.59709   15.59154   21.63686   54.74800
     120      444        2    -0.60174    2.22989    9.04115   54.75200
     121      444        2    -0.59859   14.49185    5.09135   54.79280
     122      444        2    -0.59849    3.32904   17.69514   54.80320
     123      444        3    -0.98291   16.85674    6.47202   54.89200
     124      444        3    -0.99553    0.96950   19.08387   54.89280
     125      444        2    -0.59315   14.49720    7.82140   55.07280
     126      444        2    -0.59464    3.32494   20.44259   55.07280
     127      444        3    -0.98689    1.42393    6.46117   55.21360
     128      444        3    -0.99190   16.40195   19.07126   55.21520
     129      444        2    -0.59384    0.15142    2.52298   55.25280
     130      444        2    -0.58849   17.67143   15.13509   55.25680
     131      444        2    -0.58521   14.09573   17.67017   55.71440
     132      444        2    -0.57996    3.73175    5.06008   55.72640
     133      444        2    -0.58818   14.10911   20.40728   55.96960
     134      444        2    -0.59057    3.71142    7.80703   55.97120
     135      444        2    -0.60549    0.09845   10.26468   55.98000
     136      444        2    -0.59921   17.71852   22.87477   55.98480
     137      444        3    -0.99692   16.63684    4.60507   56.42480
     138      444        3    -1.01066    1.18477   17.21516   56.42960
     139      444        3    -0.99433   16.62596    8.00931   56.74560
     140      444        3    -0.99802    1.19743    4.60330   56.74800
     141      444        3    -0.97639    1.19796   20.62066   56.74800
     142      444        3    -1.00751   16.62560   17.21516   56.75120
     143      444        3    -0.97070    1.18512    8.00881   57.06560
     144      444        3    -0.98059   16.63773   20.61965   57.07040
     145      444        2    -0.60654   17.71620    2.34945   57.51200
     146      444        2    -0.58567    0.09845   14.95979   57.51680
     147      444        2    -0.58527    3.71178   17.41643   57.52400
     148      444        2    -0.55993   14.10786    4.81820   57.52480
     149      444        2    -0.61768    3.73158   20.16364   57.77040
     150      444        2    -0.61382   14.09645    7.55531   57.78240
     151      444        2    -0.61277   17.67322   10.08913   58.24000
     152      444        2    -0.60623    0.15213   22.70149   58.24400
     153      444        3    -0.97866   16.40160    6.15371   58.28080
     154      444        3    -0.97510    1.42429   18.76330   58.28320
     155      444        2    -0.63128    3.35669    4.79676   58.37120
     156      444        2    -0.58555   14.47704   17.41870   58.36880
     157      444        3    -0.98439    0.97931    6.20290   58.57200
     158      444        3    -1.01942   16.83320   18.81450   58.57200
     159      444        2    -0.58731    3.35669    7.60702   58.77520
     160      444        2    -0.58729   14.47704   20.21458   58.77440
     161      444        2    -0.61636    2.17139   16.21939   58.77440
     162      444        2    -0.61419   15.64326    3.60829   58.77440
     163      444        2    -0.66921    8.70998   13.40509   59.18000
     164      444        2    -0.65576    8.91651    0.80080   59.08080
     165      444        2    -0.56563    2.27590   21.21944   59.18640
     166      444        2    -0.58942   15.55801    8.60834   59.18640
     167      444        2    -0.57805    8.91758   11.10962   59.19200
     168      444        2    -0.59701    8.71801   23.81985   59.28720
     169      444        2    -0.57477    1.58213    3.60324   59.28640
     170      444        2    -0.59290   16.25036   16.21485   59.28640
     171      444        2    -0.60534    1.57232    8.60960   59.79600
     172      444        2    -0.59607   16.26106   21.22297   59.79600
     173      444        2    -0.60332    7.34134    2.40822   60.20560
     174      444        2    -0.64248    6.72693   14.61753   60.40720
     175      444        2    -0.59017   10.49043   15.21327   60.40800
     176      444        2    -0.60552   11.10787    2.00390   60.40880
     177      444        4    -0.83689   17.24946    4.79625   60.61280
     178      444        4    -0.82087    0.58373   17.40912   60.61280
     179      444        4    -0.88721    0.58462   19.82213   60.61280
     180      444        4    -0.85759   17.24821    7.02413   60.81760
     181      444        2    -0.60767    6.72622   22.82256   60.81600
     182      444        2    -0.56769    7.34277    9.61319   60.81680
     183      444        2    -0.60845   11.08843   10.21398   60.81680
     184      444        2    -0.58557   10.49025   22.22303   60.81680
     185      444        4    -1.06139   10.31440   12.61539   61.02080
     186      444        4    -1.06788   10.29442   24.82621   61.02160
     187      444        2    -0.61811    5.55964    1.60590   61.42880
     188      444        2    -0.62353    5.16121   13.40434   61.43200
     189      444        2    -0.59509    8.52040   16.41486   61.53520
     190      444        2    -0.60083    9.50095    3.79745   61.63040
     191      444        2    -0.63894   12.27373   14.41297   61.63120
     192      444        3    -1.17393    7.91544   12.40705   61.63280
     193      444        3    -1.16947    7.91473    0.00277   61.63360
     194      444        2    -0.65181   12.67127    0.80736   61.63040
     195      444        2    -0.62637    5.16282   24.21457   61.83360
     196      444        2    -0.67230    5.54894   10.70909   61.83120
     197      444        2    -0.61852   12.67073   11.60373   61.83360
     198      444        2    -0.64238   12.27444   23.22586   61.83760
     199      444        2    -0.63952    9.50149    8.61489   62.24480
     200      444        2    -0.64236    8.51077   21.22499   62.24560
     201      444        4    -1.04324    7.73816    2.19534   62.85840
     202      444        4    -1.03854    7.23237   14.41323   62.85920
     203      444        3    -1.16729    9.71979   14.21624   62.85920
     204      444        3    -1.15401   10.10609    1.30172   62.86480
     205      444        3    -1.13351   10.11590   11.21581   63.26480
     206      444        3    -1.15170    9.72086   23.62488   63.26400
     207      444        4    -1.02578    7.23272   23.42083   63.26640
     208      444        4    -1.03643    7.73513   10.41475   63.26640
     209      444        2    -0.65381    8.50987   16.61916   63.87520
     210      444        2    -0.65451    9.50078    4.00781   63.87600
     211      444        4    -0.88123   12.29585   14.60794   64.28560
     212      444        4    -0.87279   12.67038    1.00157   64.28640
     213      444        4    -0.93431    5.44924    2.00189   64.28560
     214      444        4    -0.94861    5.14159   13.61066   64.28480
     215      444        4    -0.89854   12.69249   11.81711   64.48960
     216      444        3    -1.13999    7.91508   12.61715   64.48960
     217      444        3    -1.15485    7.91615    0.20682   64.49040
     218      444        4    -0.75525   12.47312   23.42613   64.49040
     219      444        2    -0.59767    9.50113    8.81617   64.49440
     220      444        2    -0.60363    8.51059   21.42702   64.49440
     221      444        4    -0.93998    5.14302   24.42619   64.49040
     222      444        4    -0.75807    5.53806   11.01403   64.69440
     223      444        4    -1.00731   10.29407   13.01617   65.10240
     224      444        4    -1.00290   10.31422    0.00454   65.10160
     225      444        4    -0.92029   10.49025   15.62137   65.31040
     226      444        4    -0.91065   11.10627    2.60772   65.30880
     227      444        4    -0.85561    7.32047    3.00699   65.51120
     228      444        4    -0.86940    6.54626   15.02133   65.51120
     229      444        4    -0.84271   11.08575   10.60493   65.71680
     230      444        4    -0.87025   10.49150   22.62482   65.92000
     231      444        4    -0.85810    6.63776   23.22082   65.92240
     232      444        4    -0.91392    7.34205   10.20768   65.92080
     233      444        4    -0.87475    8.72692   14.21876   66.93840
     234      444        4    -0.86349    9.01656    1.60237   66.94080
     235      444        4    -0.95098    8.92739   11.81206   67.14400
     236      444        4    -0.94394    8.70802   24.41736   66.94320
     237      444        2    -0.61569    7.29140   15.10230   22.42880
     238      444        2    -0.62778    6.67236    1.95775   22.45040
     239      444        2    -0.61760   10.52913    2.56989   22.50080
     240      444        2    -0.63192   11.15531   14.65435   22.53040
     241      444        2    -0.57690   17.32134   17.43031   22.68240
     242      444        2    -0.59202    0.50187    4.81946   22.68320
     243      444        2    -0.60010    0.51596    7.09299   22.86160
     244      444        2    -0.59366   17.31581   19.70358   22.86240
     245      444        2    -0.62954    6.65595   10.21524   22.89200
     246      444        2    -0.61740    7.29996   22.27272   22.90080
     247      444        2    -0.62619   11.17974   22.73781   22.98320
     248      444        2    -0.61819   10.52592    9.58620   22.99280
     249      444        4    -1.05688   10.32046   25.22043   23.22560
     250      444        4    -1.06019   10.30637   12.24084   23.24240
     251      444        2    -0.62486    5.57159   14.23995   23.65360
     252      444        2    -0.61590    5.19439    0.73876   23.68400
     253      444        2    -0.61592    8.47635    3.77248   23.71760
     254      444        2    -0.61547    9.48134   16.37879   23.72800
     255      444        2    -0.62557   12.24965    1.72722   23.73920
     256      444        3    -1.16715    7.89012   24.94803   23.76160
     257      444        3    -1.16720    7.88298   12.61312   23.76560
     258      444        2    -0.61664   12.63738   13.44368   23.76960
     259      444        2    -0.61381    5.18047   11.61558   23.92240
     260      444        2    -0.62884    5.56767   23.31263   23.95680
     261      444        2    -0.61541   12.65112   24.14824   24.00640
     262      444        2    -0.62930   12.25714   10.62637   24.04720
     263      444        2    -0.62722    9.49757   21.27947   24.44160
     264      444        2    -0.62957    8.46547    8.66559   24.44640
     265      444        4    -1.05972    7.77704   14.77516   25.02960
     266      444        4    -1.05991    7.25092    1.78876   25.03520
     267      444        3    -1.16667    9.75314    1.58774   25.07360
     268      444        3    -1.16664   10.13605   13.92820   25.09120
     269      444        3    -1.16798   10.13766   23.90838   25.34880
     270      444        3    -1.16709    9.75225   11.02664   25.36560
     271      444        4    -1.06106    7.25038   10.82486   25.40240
     272      444        4    -1.06099    7.77865   23.06091   25.41120
     273      444        2    -0.63129    8.46564    3.94929   25.99040
     274      444        2    -0.62872    9.49543   16.55686   25.99920
     275      444        2    -0.62772   12.25821    1.98953   26.39040
     276      444        2    -0.61615   12.64933   13.68834   26.43360
     277      444        2    -0.62919    5.56588   14.52219   26.48320
     278      444        2    -0.61178    5.18190    0.99829   26.51760
     279      444        2    -0.61635   12.63899   24.39441   26.67120
     280      444        3    -1.16663    7.88441    0.00177   26.67440
     281      444        3    -1.16661    7.88905   12.88728   26.67760
     282      444        2    -0.62562   12.24912   10.88641   26.70000
     283      444        2    -0.61615    9.48365   21.45829   26.71360
     284      444        2    -0.61743    8.47652    8.84114   26.72000
     285      444        2    -0.61364    5.19332   11.87335   26.75520
     286      444        2    -0.62493    5.57302   23.59612   26.78720
     287      444        4    -1.05960   10.30762    0.37505   27.19600
     288      444        4    -1.05703   10.31939   12.61514   27.21360
     289      444        2    -0.61579   10.52663    3.03020   27.44400
     290      444        2    -0.62598   11.17778   15.09851   27.45840
     291      444        2    -0.61818    7.29782   15.56235   27.53920
     292      444        2    -0.62727    6.65684    2.39964   27.54720
     293      444        2    -0.59177   17.31438   18.13174   27.57840
     294      444        2    -0.59408    0.51721    5.52064   27.57920
     295      444        2    -0.58308    0.50098    7.79442   27.75680
     296      444        2    -0.57778   17.32258   20.40501   27.75760
     297      444        2    -0.62922   11.15692   23.18374   27.91040
     298      444        2    -0.61575   10.52842   10.04298   27.93760
     299      444        2    -0.62665    6.67164   10.65411   27.98880
     300      444        2    -0.61349    7.29318   22.73453   28.01120
     301      444        2    -0.58325   16.22610    4.03328   28.53280
     302      444        2    -0.58984    1.59604   16.63606   28.54240
     303      444        2    -0.58912   16.21451    9.05099   28.98560
     304      444        2    -0.58751    1.60139   21.67041   28.99440
     305      444        2    -0.61629    8.69964    1.50375   28.99840
     306      444        2    -0.61635    9.00051   14.11510   29.00720
     307      444        2    -0.60016   15.57370   16.64110   29.09040
     308      444        2    -0.59324    2.26020    4.02168   29.10080
     309      444        2    -0.62679    8.95093   24.46579   29.17680
     310      444        2    -0.62688    8.72354   11.85721   29.17760
     311      444        2    -0.59779   15.59154   21.63686   29.52640
     312      444        2    -0.59593    2.22989    9.04115   29.53040
     313      444        2    -0.59122   14.49185    5.09135   29.56960
     314      444        2    -0.59939    3.32904   17.69514   29.58160
     315      444        3    -0.99384   16.85674    6.47202   29.66880
     316      444        3    -0.99026    0.96950   19.08387   29.67120
     317      444        2    -0.59677   14.49720    7.82140   29.85040
     318      444        2    -0.59404    3.32494   20.44259   29.85040
     319      444        3    -0.99676    1.42393    6.46117   29.99120
     320      444        3    -0.99669   16.40195   19.07126   29.99360
     321      444        2    -0.58971    0.15142    2.52298   30.02960
     322      444        2    -0.58979   17.67143   15.13483   30.03440
     323      444        2    -0.59147   14.09573   17.67017   30.49120
     324      444        2    -0.58005    3.73175    5.06008   30.50320
     325      444        2    -0.58432   14.10911   20.40728   30.74800
     326      444        2    -0.58604    3.71142    7.80703   30.74880
     327      444        2    -0.59693    0.09845   10.26468   30.75760
     328      444        2    -0.59993   17.71852   22.87502   30.76240
     329      444        3    -0.98611   16.63684    4.60507   31.20320
     330      444        3    -0.99954    1.18477   17.21516   31.20800
     331      444        3    -0.98065   16.62596    8.00931   31.52320
     332      444        3    -0.98599    1.19743    4.60330   31.52560
     333      444        3    -0.97739    1.19796   20.62066   31.52640
     334      444        3    -0.97035   16.62560   17.21516   31.52800
     335      444        3    -0.98698    1.18512    8.00881   31.84400
     336      444        3    -0.98569   16.63773   20.61965   31.84880
     337      444        2    -0.59968   17.71620    2.34945   32.28880
     338      444        2    -0.59922    0.09845   14.95979   32.29520
     339      444        2    -0.58657    3.71178   17.41643   32.30160
     340      444        2    -0.58495   14.10786    4.81820   32.30240
     341      444        2    -0.59382    3.73158   20.16364   32.54880
     342      444        2    -0.59004   14.09645    7.55531   32.56000
     343      444        2    -0.58214   17.67322   10.08913   33.01840
     344      444        2    -0.58537    0.15213   22.70149   33.02240
     345      444        3    -0.99378   16.40160    6.15371   33.05840
     346      444        3    -0.98968    1.42429   18.76330   33.06080
     347      444        2    -0.59501    3.32334    4.78036   33.20080
     348      444        2    -0.59886   14.49773   17.40407   33.20240
     349      444        3    -0.99059    0.96950    6.14009   33.38080
     350      444        3    -0.99388   16.85692   18.75271   33.38160
     351      444        2    -0.60419    3.33047    7.52807   33.46960
     352      444        2    -0.60147   14.49167   20.13413   33.48000
     353      444        2    -0.59576    2.23042   16.18307   33.52160
     354      444        2    -0.59691   15.58993    3.58861   33.52400
     355      444        2    -0.62641    8.72496   13.36575   33.87360
     356      444        2    -0.62778    8.94986    0.76171   33.87440
     357      444        2    -0.60134    2.26020   21.20203   33.95120
     358      444        2    -0.59974   15.57513    8.58337   33.96240
     359      444        2    -0.61522    9.00301   11.10811   34.04400
     360      444        2    -0.61534    8.69768   23.72375   34.05120
     361      444        2    -0.58408    1.59942    3.55330   34.05680
     362      444        2    -0.58887   16.21522   16.17424   34.06560
     363      444        2    -0.58991    1.59818    8.58740   34.50800
     364      444        2    -0.58740   16.22574   21.19194   34.51760
     365      444        2    -0.61317    7.29140    2.49120   35.04080
     366      444        2    -0.62600    6.67236   14.56885   35.06160
     367      444        2    -0.61515   10.52913   15.18099   35.11120
     368      444        2    -0.62833   11.15531    2.04325   35.14080