Created on Tue Feb 28 17:53:07 2023 

        7900 atoms
        9050 bonds
       18300 angles
       14400 dihedrals
       10800 impropers

           6 atom types
           6 bond types
          10 angle types
           1 dihedral types
           1 improper types
           0.000000  48.927000 xlo xhi
           0.000000  48.927000 ylo yhi
           0.000000  77.232000 zlo zhi
           0.000000   0.000000   0.000000 xy xz yz

Masses

    1    18.998403200 # F_
    2     1.007940000 # H_
    3    12.010700000 # C_R
    4    14.006700000 # N_R
    5    58.693400000 # Ni4+2
    6    26.981538600 # Al3

Bond Coeffs

  1 263.722425	2.013603 	# F_ Ni4+2
  2 176.735686	1.777336 	# F_ Al3
  3 357.440381	1.090210 	# H_ C_R
  4 462.655054	1.391763 	# C_R C_R
  5 663.718927	1.345703 	# C_R N_R
  6 328.673665	2.072134 	# N_R Ni4+2

Angle Coeffs

    1              cosine/periodic       32.445365               1               1 # Ni4+2 F_ Al3
    2              cosine/periodic       57.289016              -1               3 # H_ C_R C_R
    3              cosine/periodic       79.786967              -1               3 # H_ C_R N_R
    4              cosine/periodic      153.699352              -1               3 # C_R C_R N_R
    5              cosine/periodic      120.000516              -1               3 # C_R N_R C_R
    6              cosine/periodic       88.904516              -1               3 # C_R N_R Ni4+2
    7              cosine/periodic       99.858843               1               4 # F_ Ni4+2 F_
    8              cosine/periodic      134.496519               1               4 # F_ Ni4+2 N_R
    9              cosine/periodic      182.482830               1               4 # N_R Ni4+2 N_R
   10                      fourier      104.788698        0.343737        0.374972        0.281246 # F_ Al3 F_

Dihedral Coeffs

    1        3.368555              -1               2 # H_ C_R C_R H_

Improper Coeffs

    1        2.000000        1.000000       -1.000000        0.000000               0 # H_ C_R C_R N_R

Pair Coeffs

    1        0.050000        2.996983 # F_ F_
    2        0.044000        2.571134 # H_ H_
    3        0.105000        3.430851 # C_R C_R
    4        0.069000        3.260689 # N_R N_R
    5        0.015000        2.524807 # Ni4+2 Ni4+2
    6        0.505000        4.008153 # Al3 Al3

Atoms

       1      444        1    -0.56100    4.88605    4.87127   12.62743
       2      444        1    -0.56100    9.78276    0.01644   12.62820
       3      444        1    -0.60400    4.86902    4.89534   16.65817
       4      444        1    -0.60400    9.77131    9.77659   16.65971
       5      444        1    -0.62300    1.51830    9.01421   18.49861
       6      444        1    -0.62300    6.35963    5.71614   18.49861
       7      444        1    -0.62300    4.92900    3.11714   18.51406
       8      444        1    -0.62300    3.30032    5.57631   18.51406
       9      444        1    -0.62300    8.24048    9.03731   18.51714
      10      444        1    -0.62300    0.00078    1.77037   18.51869
      11      444        1    -0.60400    4.88174    4.90160   20.36144
      12      444        1    -0.60400    0.00147    9.76691   20.36222
      13      444        1    -0.60400    4.86736    4.87695   24.38446
      14      444        1    -0.60400    9.76133    0.00783   24.38446
      15      444        1    -0.62300    1.47427    0.83225   26.21331
      16      444        1    -0.62300    6.35258    4.03980   26.21563
      17      444        1    -0.62300    4.97695    6.66102   26.23030
      18      444        1    -0.62300    0.06840    8.01307   26.23030
      19      444        1    -0.62300    8.19243    0.66639   26.23494
      20      444        1    -0.62300    3.28447    4.24794   26.23571
      21      444        1    -0.60400    4.88605    4.87127   28.07383
      22      444        1    -0.60400    9.78276    0.01644   28.07460
      23      444        1    -0.60400    4.86902    4.89534   32.10457
      24      444        1    -0.60400    9.77131    9.77659   32.10611
      25      444        1    -0.62300    1.51830    9.01421   33.94501
      26      444        1    -0.62300    6.35963    5.71614   33.94501
      27      444        1    -0.62300    4.92900    3.11714   33.96046
      28      444        1    -0.62300    3.30032    5.57631   33.96046
      29      444        1    -0.62300    8.24048    9.03731   33.96354
      30      444        1    -0.62300    0.00078    1.77037   33.96509
      31      444        1    -0.60400    4.88174    4.90160   35.80784
      32      444        1    -0.60400    0.00147    9.76691   35.80862
      33      444        1    -0.60400    4.86736    4.87695   39.83086
      34      444        1    -0.60400    9.76133    0.00783   39.83086
      35      444        1    -0.62300    1.47427    0.83225   41.65971
      36      444        1    -0.62300    6.35258    4.03980   41.66203
      37      444        1    -0.62300    4.97695    6.66102   41.67670
      38      444        1    -0.62300    0.06840    8.01307   41.67670
      39      444        1    -0.62300    8.19243    0.66639   41.68134
      40      444        1    -0.62300    3.28447    4.24794   41.68211
      41      444        1    -0.60400    4.88605    4.87127   43.52023
      42      444        1    -0.60400    9.78276    0.01644   43.52100
      43      444        1    -0.60400    4.86902    4.89534   47.55097
      44      444        1    -0.60400    9.77131    9.77659   47.55251
      45      444        1    -0.62300    1.51830    9.01421   49.39141
      46      444        1    -0.62300    6.35963    5.71614   49.39141
      47      444        1    -0.62300    4.92900    3.11714   49.40686
      48      444        1    -0.62300    3.30032    5.57631   49.40686
      49      444        1    -0.62300    8.24048    9.03731   49.40994
      50      444        1    -0.62300    0.00078    1.77037   49.41149
      51      444        1    -0.60400    4.88174    4.90160   51.25424
      52      444        1    -0.60400    0.00147    9.76691   51.25502
      53      444        1    -0.56100    4.86736    4.87695   55.27726
      54      444        1    -0.56100    9.76133    0.00783   55.27726
      55      444        2     0.13500    8.77907    7.68301   12.66759
      56      444        2     0.13500    3.89371    6.99314   12.67145
      57      444        2     0.13500    6.98355    5.90510   12.67223
      58      444        2     0.13500    2.09916    8.77290   12.67532
      59      444        2     0.13500    5.97134    2.84589   12.73015
      60      444        2     0.13500    7.72890    1.05487   12.73247
      61      444        2     0.13500    1.07082    2.04417   12.73247
      62      444        2     0.13500    2.82847    3.83617   12.73247
      63      444        2     0.13500    1.00574    7.67537   16.53692
      64      444        2     0.13500    2.77220    5.88611   16.54387
      65      444        2     0.13500    5.90813    6.98795   16.54387
      66      444        2     0.13500    7.67440    8.77574   16.54850
      67      444        2     0.13500    2.17148    0.92315   16.58712
      68      444        2     0.13500    7.05439    3.95448   16.59330
      69      444        2     0.13500    3.96044    2.71310   16.59870
      70      444        2     0.13500    8.84414    2.16551   16.60720
      71      444        2     0.13500    8.79277    2.11091   20.43327
      72      444        2     0.13500    3.90574    2.76858   20.43713
      73      444        2     0.13500    7.00263    3.89557   20.44177
      74      444        2     0.13500    2.11736    0.98157   20.44563
      75      444        2     0.13500    5.98397    6.91515   20.47575
      76      444        2     0.13500    7.74544    8.70460   20.47575
      77      444        2     0.13500    2.84266    5.95657   20.48115
      78      444        2     0.13500    1.08129    7.74720   20.48270
      79      444        2     0.13500    0.94038    2.16561   24.25780
      80      444        2     0.13500    5.83738    2.72357   24.26089
      81      444        2     0.13500    2.71193    3.95193   24.26475
      82      444        2     0.13500    7.60874    0.93764   24.26784
      83      444        2     0.13500    2.19477    8.88123   24.32885
      84      444        2     0.13500    7.07974    5.79619   24.33194
      85      444        2     0.13500    3.98540    7.09079   24.34044
      86      444        2     0.13500    8.87076    7.58535   24.34430
      87      444        2     0.13500    8.77907    7.68301   28.11399
      88      444        2     0.13500    3.89371    6.99314   28.11785
      89      444        2     0.13500    6.98355    5.90510   28.11863
      90      444        2     0.13500    2.09916    8.77290   28.12172
      91      444        2     0.13500    5.97134    2.84589   28.17655
      92      444        2     0.13500    7.72890    1.05487   28.17887
      93      444        2     0.13500    1.07082    2.04417   28.17887
      94      444        2     0.13500    2.82847    3.83617   28.17887
      95      444        2     0.13500    1.00574    7.67537   31.98332
      96      444        2     0.13500    2.77220    5.88611   31.99027
      97      444        2     0.13500    5.90813    6.98795   31.99027
      98      444        2     0.13500    7.67440    8.77574   31.99490
      99      444        2     0.13500    2.17148    0.92315   32.03352
     100      444        2     0.13500    7.05439    3.95448   32.03970
     101      444        2     0.13500    3.96044    2.71310   32.04510
     102      444        2     0.13500    8.84414    2.16551   32.05360
     103      444        2     0.13500    8.79277    2.11091   35.87967
     104      444        2     0.13500    3.90574    2.76858   35.88353
     105      444        2     0.13500    7.00263    3.89557   35.88817
     106      444        2     0.13500    2.11736    0.98157   35.89203
     107      444        2     0.13500    5.98397    6.91515   35.92215
     108      444        2     0.13500    7.74544    8.70460   35.92215
     109      444        2     0.13500    2.84266    5.95657   35.92755
     110      444        2     0.13500    1.08129    7.74720   35.92910
     111      444        2     0.13500    0.94038    2.16561   39.70420
     112      444        2     0.13500    5.83738    2.72357   39.70729
     113      444        2     0.13500    2.71193    3.95193   39.71115
     114      444        2     0.13500    7.60874    0.93764   39.71424
     115      444        2     0.13500    2.19477    8.88123   39.77525
     116      444        2     0.13500    7.07974    5.79619   39.77834
     117      444        2     0.13500    3.98540    7.09079   39.78684
     118      444        2     0.13500    8.87076    7.58535   39.79070
     119      444        2     0.13500    8.77907    7.68301   43.56039
     120      444        2     0.13500    3.89371    6.99314   43.56425
     121      444        2     0.13500    6.98355    5.90510   43.56503
     122      444        2     0.13500    2.09916    8.77290   43.56812
     123      444        2     0.13500    5.97134    2.84589   43.62295
     124      444        2     0.13500    7.72890    1.05487   43.62527
     125      444        2     0.13500    1.07082    2.04417   43.62527
     126      444        2     0.13500    2.82847    3.83617   43.62527
     127      444        2     0.13500    1.00574    7.67537   47.42972
     128      444        2     0.13500    2.77220    5.88611   47.43667
     129      444        2     0.13500    5.90813    6.98795   47.43667
     130      444        2     0.13500    7.67440    8.77574   47.44130
     131      444        2     0.13500    2.17148    0.92315   47.47992
     132      444        2     0.13500    7.05439    3.95448   47.48610
     133      444        2     0.13500    3.96044    2.71310   47.49150
     134      444        2     0.13500    8.84414    2.16551   47.50000
     135      444        2     0.13500    8.79277    2.11091   51.32607
     136      444        2     0.13500    3.90574    2.76858   51.32993
     137      444        2     0.13500    7.00263    3.89557   51.33457
     138      444        2     0.13500    2.11736    0.98157   51.33843
     139      444        2     0.13500    5.98397    6.91515   51.36855
     140      444        2     0.13500    7.74544    8.70460   51.36855
     141      444        2     0.13500    2.84266    5.95657   51.37395
     142      444        2     0.13500    1.08129    7.74720   51.37550
     143      444        2     0.13500    0.94038    2.16561   55.15060
     144      444        2     0.13500    5.83738    2.72357   55.15369
     145      444        2     0.13500    2.71193    3.95193   55.15755
     146      444        2     0.13500    7.60874    0.93764   55.16064
     147      444        2     0.13500    2.19477    8.88123   55.22165
     148      444        2     0.13500    7.07974    5.79619   55.22474
     149      444        2     0.13500    3.98540    7.09079   55.23324
     150      444        2     0.13500    8.87076    7.58535   55.23710
     151      444        3     0.06200    8.12697    7.53662   13.53027
     152      444        3     0.06200    7.14070    6.55475   13.53182
     153      444        3     0.06200    3.23838    7.13737   13.53259
     154      444        3     0.06200    2.25240    8.11983   13.53336
     155      444        3     0.06200    6.58734    2.66858   13.60905
     156      444        3     0.06200    1.69101    2.21894   13.60905
     157      444        3     0.06200    2.66975    3.20697   13.61060
     158      444        3     0.06200    7.56636    1.68084   13.61137
     159      444        3     0.06200    1.62770    7.49708   15.66265
     160      444        3     0.06200    2.60752    6.50905   15.66342
     161      444        3     0.06200    6.52461    7.16986   15.66574
     162      444        3     0.06200    7.50511    8.15731   15.66651
     163      444        3     0.06200    2.32129    1.58396   15.73293
     164      444        3     0.06200    3.30629    2.56857   15.73602
     165      444        3     0.06200    7.20851    3.29670   15.73756
     166      444        3     0.06200    8.19371    2.31219   15.74220
     167      444        3     0.06200    8.12501    2.24242   21.28746
     168      444        3     0.06200    3.23564    2.63893   21.28900
     169      444        3     0.06200    7.14021    3.22527   21.28977
     170      444        3     0.06200    2.25152    1.65540   21.29132
     171      444        3     0.06200    6.60446    7.08982   21.35156
     172      444        3     0.06200    7.58359    8.07697   21.35388
     173      444        3     0.06200    1.70726    7.57644   21.35542
     174      444        3     0.06200    2.68590    6.58900   21.35619
     175      444        3     0.06200    1.58122    2.32472   23.39280
     176      444        3     0.06200    2.56221    3.31236   23.39357
     177      444        3     0.06200    6.47539    2.56211   23.39435
     178      444        3     0.06200    7.45667    1.57467   23.39512
     179      444        3     0.06200    2.34292    8.21827   23.47544
     180      444        3     0.06200    7.23141    6.45592   23.47698
     181      444        3     0.06200    3.32860    7.23327   23.47930
     182      444        3     0.06200    8.21729    7.44062   23.48162
     183      444        3     0.06200    8.12697    7.53662   28.97667
     184      444        3     0.06200    7.14070    6.55475   28.97822
     185      444        3     0.06200    3.23838    7.13737   28.97899
     186      444        3     0.06200    2.25240    8.11983   28.97976
     187      444        3     0.06200    6.58734    2.66858   29.05545
     188      444        3     0.06200    1.69101    2.21894   29.05545
     189      444        3     0.06200    2.66975    3.20697   29.05700
     190      444        3     0.06200    7.56636    1.68084   29.05777
     191      444        3     0.06200    1.62770    7.49708   31.10905
     192      444        3     0.06200    2.60752    6.50905   31.10982
     193      444        3     0.06200    6.52461    7.16986   31.11214
     194      444        3     0.06200    7.50511    8.15731   31.11291
     195      444        3     0.06200    2.32129    1.58396   31.17933
     196      444        3     0.06200    3.30629    2.56857   31.18242
     197      444        3     0.06200    7.20851    3.29670   31.18396
     198      444        3     0.06200    8.19371    2.31219   31.18860
     199      444        3     0.06200    8.12501    2.24242   36.73386
     200      444        3     0.06200    3.23564    2.63893   36.73540
     201      444        3     0.06200    7.14021    3.22527   36.73617
     202      444        3     0.06200    2.25152    1.65540   36.73772
     203      444        3     0.06200    6.60446    7.08982   36.79796
     204      444        3     0.06200    7.58359    8.07697   36.80028
     205      444        3     0.06200    1.70726    7.57644   36.80182
     206      444        3     0.06200    2.68590    6.58900   36.80259
     207      444        3     0.06200    1.58122    2.32472   38.83920
     208      444        3     0.06200    2.56221    3.31236   38.83997
     209      444        3     0.06200    6.47539    2.56211   38.84075
     210      444        3     0.06200    7.45667    1.57467   38.84152
     211      444        3     0.06200    2.34292    8.21827   38.92184
     212      444        3     0.06200    7.23141    6.45592   38.92338
     213      444        3     0.06200    3.32860    7.23327   38.92570
     214      444        3     0.06200    8.21729    7.44062   38.92802
     215      444        3     0.06200    8.12697    7.53662   44.42307
     216      444        3     0.06200    7.14070    6.55475   44.42462
     217      444        3     0.06200    3.23838    7.13737   44.42539
     218      444        3     0.06200    2.25240    8.11983   44.42616
     219      444        3     0.06200    6.58734    2.66858   44.50185
     220      444        3     0.06200    1.69101    2.21894   44.50185
     221      444        3     0.06200    2.66975    3.20697   44.50340
     222      444        3     0.06200    7.56636    1.68084   44.50417
     223      444        3     0.06200    1.62770    7.49708   46.55545
     224      444        3     0.06200    2.60752    6.50905   46.55622
     225      444        3     0.06200    6.52461    7.16986   46.55854
     226      444        3     0.06200    7.50511    8.15731   46.55931
     227      444        3     0.06200    2.32129    1.58396   46.62573
     228      444        3     0.06200    3.30629    2.56857   46.62882
     229      444        3     0.06200    7.20851    3.29670   46.63036
     230      444        3     0.06200    8.19371    2.31219   46.63500
     231      444        3     0.06200    8.12501    2.24242   52.18026
     232      444        3     0.06200    3.23564    2.63893   52.18180
     233      444        3     0.06200    7.14021    3.22527   52.18257
     234      444        3     0.06200    2.25152    1.65540   52.18412
     235      444        3     0.06200    6.60446    7.08982   52.24436
     236      444        3     0.06200    7.58359    8.07697   52.24668
     237      444        3     0.06200    1.70726    7.57644   52.24822
     238      444        3     0.06200    2.68590    6.58900   52.24899
     239      444        3     0.06200    1.58122    2.32472   54.28560
     240      444        3     0.06200    2.56221    3.31236   54.28637
     241      444        3     0.06200    6.47539    2.56211   54.28715
     242      444        3     0.06200    7.45667    1.57467   54.28792
     243      444        3     0.06200    2.34292    8.21827   54.36824
     244      444        3     0.06200    7.23141    6.45592   54.36978
     245      444        3     0.06200    3.32860    7.23327   54.37210
     246      444        3     0.06200    8.21729    7.44062   54.37442
     247      444        4    -0.23600    1.44853    8.29792   14.59839
     248      444        4    -0.23600    3.41070    6.33203   14.59916
     249      444        4    -0.23600    6.34074    6.37294   14.59916
     250      444        4    -0.23600    8.30418    8.33824   14.59916
     251      444        4    -0.23600    1.50999    1.41702   14.67176
     252      444        4    -0.23600    6.40200    3.46755   14.67331
     253      444        4    -0.23600    3.47078    3.38408   14.67640
     254      444        4    -0.23600    8.36299    1.50030   14.68026
     255      444        4    -0.23600    3.38722    3.46618   22.34167
     256      444        4    -0.23600    8.27952    1.41820   22.34245
     257      444        4    -0.23600    6.31716    3.38399   22.34322
     258      444        4    -0.23600    1.42573    1.50020   22.34322
     259      444        4    -0.23600    6.42089    6.28908   22.41504
     260      444        4    -0.23600    1.52838    8.38129   22.41659
     261      444        4    -0.23600    3.48947    6.41443   22.42045
     262      444        4    -0.23600    8.38257    8.25575   22.42045
     263      444        4    -0.23600    1.44853    8.29792   30.04479
     264      444        4    -0.23600    3.41070    6.33203   30.04556
     265      444        4    -0.23600    6.34074    6.37294   30.04556
     266      444        4    -0.23600    8.30418    8.33824   30.04556
     267      444        4    -0.23600    1.50999    1.41702   30.11816
     268      444        4    -0.23600    6.40200    3.46755   30.11971
     269      444        4    -0.23600    3.47078    3.38408   30.12280
     270      444        4    -0.23600    8.36299    1.50030   30.12666
     271      444        4    -0.23600    3.38722    3.46618   37.78807
     272      444        4    -0.23600    8.27952    1.41820   37.78885
     273      444        4    -0.23600    6.31716    3.38399   37.78962
     274      444        4    -0.23600    1.42573    1.50020   37.78962
     275      444        4    -0.23600    6.42089    6.28908   37.86144
     276      444        4    -0.23600    1.52838    8.38129   37.86299
     277      444        4    -0.23600    3.48947    6.41443   37.86685
     278      444        4    -0.23600    8.38257    8.25575   37.86685
     279      444        4    -0.23600    1.44853    8.29792   45.49119
     280      444        4    -0.23600    3.41070    6.33203   45.49196
     281      444        4    -0.23600    6.34074    6.37294   45.49196
     282      444        4    -0.23600    8.30418    8.33824   45.49196
     283      444        4    -0.23600    1.50999    1.41702   45.56456
     284      444        4    -0.23600    6.40200    3.46755   45.56611
     285      444        4    -0.23600    3.47078    3.38408   45.56920
     286      444        4    -0.23600    8.36299    1.50030   45.57306
     287      444        4    -0.23600    3.38722    3.46618   53.23447
     288      444        4    -0.23600    8.27952    1.41820   53.23525
     289      444        4    -0.23600    6.31716    3.38399   53.23602
     290      444        4    -0.23600    1.42573    1.50020   53.23602
     291      444        4    -0.23600    6.42089    6.28908   53.30784
     292      444        4    -0.23600    1.52838    8.38129   53.30939
     293      444        4    -0.23600    3.48947    6.41443   53.31325
     294      444        4    -0.23600    8.38257    8.25575   53.31325
     295      444        5     0.73500    4.89828    4.88800   14.64319
     296      444        5     0.73500    0.00646    9.78276   14.64396
     297      444        5     0.73500    4.89573    4.88967   22.37952
     298      444        5     0.73500    0.00382    9.78158   22.38029
     299      444        5     0.73500    4.89828    4.88800   30.08959
     300      444        5     0.73500    0.00646    9.78276   30.09036
     301      444        5     0.73500    4.89573    4.88967   37.82592
     302      444        5     0.73500    0.00382    9.78158   37.82669
     303      444        5     0.73500    4.89828    4.88800   45.53599
     304      444        5     0.73500    0.00646    9.78276   45.53676
     305      444        5     0.73500    4.89573    4.88967   53.27232
     306      444        5     0.73500    0.00382    9.78158   53.27309
     307      444        6     1.66100    4.86745    4.84387   18.50710
     308      444        6     1.66100    9.77904    0.04178   18.50788
     309      444        6     1.66100    4.87323    4.93468   26.22567
     310      444        6     1.66100    9.77062    9.74029   26.22567
     311      444        6     1.66100    4.86745    4.84387   33.95350
     312      444        6     1.66100    9.77904    0.04178   33.95428
     313      444        6     1.66100    4.87323    4.93468   41.67207
     314      444        6     1.66100    9.77062    9.74029   41.67207
     315      444        6     1.66100    4.86745    4.84387   49.39990
     316      444        6     1.66100    9.77904    0.04178   49.40068
     317      444        1    -0.56100    4.88605   14.65667   12.62743
     318      444        1    -0.56100    9.78276    9.80184   12.62820
     319      444        1    -0.60400    4.86902   14.68074   16.65817
     320      444        1    -0.60400    9.77131   19.56199   16.65971
     321      444        1    -0.62300    1.51830   18.79961   18.49861
     322      444        1    -0.62300    6.35963   15.50154   18.49861
     323      444        1    -0.62300    4.92900   12.90254   18.51406
     324      444        1    -0.62300    3.30032   15.36171   18.51406
     325      444        1    -0.62300    8.24048   18.82271   18.51714
     326      444        1    -0.62300    0.00078   11.55577   18.51869
     327      444        1    -0.60400    4.88174   14.68700   20.36144
     328      444        1    -0.60400    0.00147   19.55231   20.36222
     329      444        1    -0.60400    4.86736   14.66235   24.38446
     330      444        1    -0.60400    9.76133    9.79323   24.38446
     331      444        1    -0.62300    1.47427   10.61765   26.21331
     332      444        1    -0.62300    6.35258   13.82520   26.21563
     333      444        1    -0.62300    4.97695   16.44642   26.23030
     334      444        1    -0.62300    0.06840   17.79847   26.23030
     335      444        1    -0.62300    8.19243   10.45179   26.23494
     336      444        1    -0.62300    3.28447   14.03334   26.23571
     337      444        1    -0.60400    4.88605   14.65667   28.07383
     338      444        1    -0.60400    9.78276    9.80184   28.07460
     339      444        1    -0.60400    4.86902   14.68074   32.10457
     340      444        1    -0.60400    9.77131   19.56199   32.10611
     341      444        1    -0.62300    1.51830   18.79961   33.94501
     342      444        1    -0.62300    6.35963   15.50154   33.94501
     343      444        1    -0.62300    4.92900   12.90254   33.96046
     344      444        1    -0.62300    3.30032   15.36171   33.96046
     345      444        1    -0.62300    8.24048   18.82271   33.96354
     346      444        1    -0.62300    0.00078   11.55577   33.96509
     347      444        1    -0.60400    4.88174   14.68700   35.80784
     348      444        1    -0.60400    0.00147   19.55231   35.80862
     349      444        1    -0.60400    4.86736   14.66235   39.83086
     350      444        1    -0.60400    9.76133    9.79323   39.83086
     351      444        1    -0.62300    1.47427   10.61765   41.65971
     352      444        1    -0.62300    6.35258   13.82520   41.66203
     353      444        1    -0.62300    4.97695   16.44642   41.67670
     354      444        1    -0.62300    0.06840   17.79847   41.67670
     355      444        1    -0.62300    8.19243   10.45179   41.68134
     356      444        1    -0.62300    3.28447   14.03334   41.68211
     357      444        1    -0.60400    4.88605   14.65667   43.52023
     358      444        1    -0.60400    9.78276    9.80184   43.52100
     359      444        1    -0.60400    4.86902   14.68074   47.55097
     360      444        1    -0.60400    9.77131   19.56199   47.55251
     361      444        1    -0.62300    1.51830   18.79961   49.39141
     362      444        1    -0.62300    6.35963   15.50154   49.39141
     363      444        1    -0.62300    4.92900   12.90254   49.40686
     364      444        1    -0.62300    3.30032   15.36171   49.40686
     365      444        1    -0.62300    8.24048   18.82271   49.40994
     366      444        1    -0.62300    0.00078   11.55577   49.41149
     367      444        1    -0.60400    4.88174   14.68700   51.25424
     368      444        1    -0.60400    0.00147   19.55231   51.25502
     369      444        1    -0.56100    4.86736   14.66235   55.27726
     370      444        1    -0.56100    9.76133    9.79323   55.27726
     371      444        2     0.13500    8.77907   17.46841   12.66759
     372      444        2     0.13500    3.89371   16.77854   12.67145
     373      444        2     0.13500    6.98355   15.69050   12.67223
     374      444        2     0.13500    2.09916   18.55830   12.67532
     375      444        2     0.13500    5.97134   12.63129   12.73015
     376      444        2     0.13500    7.72890   10.84027   12.73247
     377      444        2     0.13500    1.07082   11.82957   12.73247
     378      444        2     0.13500    2.82847   13.62157   12.73247
     379      444        2     0.13500    1.00574   17.46077   16.53692
     380      444        2     0.13500    2.77220   15.67151   16.54387
     381      444        2     0.13500    5.90813   16.77335   16.54387
     382      444        2     0.13500    7.67440   18.56114   16.54850
     383      444        2     0.13500    2.17148   10.70855   16.58712