Created on Thu Mar 23 23:02:51 2023 

        8800 atoms
       11450 bonds
       23400 angles
       20200 dihedrals
       14100 impropers

           6 atom types
           9 bond types
          15 angle types
           3 dihedral types
           1 improper types
           0.000000  48.467500 xlo xhi
           0.000000  47.418000 ylo yhi
           0.000000  85.000000 zlo zhi
           0.000000   0.000000   0.000000 xy xz yz

Masses

    1    65.380000000 # Zn3+2
    2    14.006700000 # N_R
    3    15.999400000 # O_R
    4    15.999400000 # O_3
    5    12.010700000 # C_R
    6     1.007940000 # H_

Bond Coeffs

  1 165.837318	2.044388 	# Zn3+2 N_R
  2 160.291409	2.124972 	# Zn3+2 O_R
  3 166.031136	2.168211 	# Zn3+2 O_3
  4 929.109299	1.370329 	# N_R N_R
  5 663.718927	1.341356 	# N_R C_R
  6 646.680887	1.267041 	# O_R C_R
  7 559.995206	0.995399 	# O_3 H_
  8 357.440381	1.084318 	# C_R H_
  9 391.669513	1.560171 	# C_R C_R

Angle Coeffs

    1                      fourier      197.524216        0.343737        0.374972        0.281246 # N_R Zn3+2 N_R
    2                      fourier      184.568655        0.343737        0.374972        0.281246 # N_R Zn3+2 O_R
    3                      fourier      172.607259        0.343737        0.374972        0.281246 # O_R Zn3+2 O_R
    4                      fourier      187.739573        0.343737        0.374972        0.281246 # N_R Zn3+2 O_3
    5              cosine/periodic       62.131512              -1               3 # Zn3+2 N_R N_R
    6              cosine/periodic       45.889625              -1               3 # Zn3+2 N_R C_R
    7              cosine/periodic      163.738922              -1               3 # N_R N_R C_R
    8              cosine/periodic      120.000516              -1               3 # C_R N_R C_R
    9              cosine/periodic       60.877639              -1               3 # Zn3+2 O_R C_R
   10                      fourier       64.112792        0.300235        0.267331        0.266745 # Zn3+2 O_3 H_
   11                      fourier      120.499822        0.300235        0.267331        0.266745 # H_ O_3 H_
   12              cosine/periodic      212.442573              -1               3 # N_R C_R N_R
   13              cosine/periodic       79.786967              -1               3 # N_R C_R H_
   14              cosine/periodic      187.136328              -1               3 # O_R C_R O_R
   15              cosine/periodic      131.755710              -1               3 # O_R C_R C_R

Dihedral Coeffs

    1        3.368555              -1               2 # Zn3+2 N_R N_R Zn3+2
    2        6.737110              -1               2 # Zn3+2 O_R C_R O_R
    3        1.250000              -1               2 # O_R C_R C_R O_R

Improper Coeffs

    1        2.000000        1.000000       -1.000000        0.000000               0 # Zn3+2 N_R N_R C_R

Pair Coeffs

    1        0.124000        2.461553 # Zn3+2 Zn3+2
    2        0.069000        3.260689 # N_R N_R
    3        0.060000        3.118146 # O_R O_R
    4        0.060000        3.118146 # O_3 O_3
    5        0.105000        3.430851 # C_R C_R
    6        0.044000        2.571134 # H_ H_

Atoms

       1      444        1     0.70717    0.49676    0.62809   18.13356
       2      444        1     0.68934    0.53809    6.17714   26.19190
       3      444        1     0.69108    0.53809    2.28422   34.21080
       4      444        1     0.69007    0.53809    7.87499   42.22970
       5      444        1     0.68692    0.53809    3.98216   50.24860
       6      444        1     0.68869    0.53809    0.08924   58.26750
       7      444        1     0.69627    0.53809    5.68001   66.28555
       8      444        1     0.55498    0.51198    1.84200   74.38307
       9      444        1     0.33782    9.23219    3.06086   15.19290
      10      444        1     0.69798    9.15541    8.69068   23.39540
      11      444        1     0.69142    9.15541    4.79785   31.41430
      12      444        1     0.69197    9.15541    0.90502   39.43320
      13      444        1     0.68848    9.15541    6.49570   47.45210
      14      444        1     0.68620    9.15541    2.60287   55.47100
      15      444        1     0.68963    9.15541    8.19355   63.48905
      16      444        1     0.69006    9.19785    4.28553   71.53532
      17      444        1     0.55120    5.37697    7.80125   15.27569
      18      444        1     0.70124    5.38484    3.94888   23.39540
      19      444        1     0.69138    5.38484    0.05605   31.41430
      20      444        1     0.69196    5.38484    5.64682   39.43320
      21      444        1     0.68835    5.38484    1.75390   47.45210
      22      444        1     0.68633    5.38484    7.34467   55.47100
      23      444        1     0.68973    5.38484    3.45175   63.48905
      24      444        1     0.69113    5.32943    9.01125   71.52801
      25      444        1     0.70676    4.36101    5.34963   18.13900
      26      444        1     0.68937    4.30866    1.43534   26.19190
      27      444        1     0.69108    4.30866    7.02602   34.21080
      28      444        1     0.69019    4.30866    3.13319   42.22970
      29      444        1     0.68693    4.30866    8.72396   50.24860
      30      444        1     0.68861    4.30866    4.83104   58.26750
      31      444        1     0.69505    4.30866    0.93821   66.28555
      32      444        1     0.50954    4.33798    6.60180   74.41452
      33      444        2    -0.19038    8.54824    0.53228   16.92384
      34      444        2    -0.18652    8.57031    6.07633   25.07585
      35      444        2    -0.19080    8.57031    2.18350   33.09390
      36      444        2    -0.19050    8.57031    7.77428   41.11280
      37      444        2    -0.19128    8.57031    3.88135   49.13170
      38      444        2    -0.19680    8.57031    9.47212   57.15060
      39      444        2    -0.19337    8.57031    5.57920   65.16950
      40      444        2    -0.20295    8.59459    1.60371   73.21178
      41      444        2    -0.18474    1.08652    3.28993   16.51031
      42      444        2    -0.18805    1.12319    8.79149   24.51145
      43      444        2    -0.19484    1.12319    4.89856   32.53035
      44      444        2    -0.19424    1.12319    1.00574   40.54925
      45      444        2    -0.19060    1.12319    6.59651   48.56815
      46      444        2    -0.18492    1.12319    2.70358   56.58705
      47      444        2    -0.19140    1.12319    8.29436   64.60595
      48      444        2    -0.18676    1.12953    4.38789   72.77963
      49      444        2    -0.21391    3.75200    8.02460   16.45388
      50      444        2    -0.18778    3.72356    4.04969   24.51145
      51      444        2    -0.19482    3.72356    0.15676   32.53035
      52      444        2    -0.19423    3.72356    5.74754   40.54925
      53      444        2    -0.19059    3.72356    1.85471   48.56815
      54      444        2    -0.18489    3.72356    7.44538   56.58705
      55      444        2    -0.19135    3.72356    3.55256   64.60595
      56      444        2    -0.19183    3.70071    9.11914   72.76595
      57      444        2    -0.18982    5.99621    5.26093   16.91959
      58      444        2    -0.18671    5.96994    1.33453   25.07585
      59      444        2    -0.19080    5.96994    6.92530   33.09390
      60      444        2    -0.19050    5.96994    3.03248   41.11280
      61      444        2    -0.19126    5.96994    8.62315   49.13170
      62      444        2    -0.19683    5.96994    4.73032   57.15060
      63      444        2    -0.19322    5.96994    0.83740   65.16950
      64      444        2    -0.18976    5.91606    6.33328   73.19597
      65      444        2    -0.14733    8.24384    1.35531   15.86355
      66      444        2    -0.19295    8.22939    6.93706   24.06690
      67      444        2    -0.19100    8.22939    3.04414   32.08580
      68      444        2    -0.19479    8.22939    8.63491   40.10470
      69      444        2    -0.19542    8.22939    4.74208   48.12360
      70      444        2    -0.19108    8.22939    0.84916   56.14250
      71      444        2    -0.19012    8.22939    6.43993   64.16055
      72      444        2    -0.19803    8.24931    2.49004   72.22212
      73      444        2    -0.18365    1.44819    2.39874   17.48595
      74      444        2    -0.19541    1.46411    7.93076   25.52040
      75      444        2    -0.19479    1.46411    4.03793   33.53930
      76      444        2    -0.19355    1.46411    0.14500   41.55820
      77      444        2    -0.19258    1.46411    5.73578   49.57710
      78      444        2    -0.19701    1.46411    1.84295   57.59600
      79      444        2    -0.19531    1.46411    7.43363   65.61405
      80      444        2    -0.19923    1.44023    3.57013   73.83933
      81      444        2    -0.18221    3.40911    7.13603   17.44480
      82      444        2    -0.19523    3.38264    3.18896   25.52040
      83      444        2    -0.19482    3.38264    8.77973   33.53930
      84      444        2    -0.19358    3.38264    4.88680   41.55820
      85      444        2    -0.19256    3.38264    0.99398   49.57710
      86      444        2    -0.19701    3.38264    6.58475   57.59600
      87      444        2    -0.19493    3.38264    2.69183   65.61405
      88      444        2    -0.19915    3.38694    8.30439   73.83040
      89      444        2    -0.18784    6.30300    6.08027   15.85760
      90      444        2    -0.19326    6.31086    2.19526   24.06690
      91      444        2    -0.19096    6.31086    7.78594   32.08580
      92      444        2    -0.19478    6.31086    3.89311   40.10470
      93      444        2    -0.19541    6.31086    0.00028   48.12360
      94      444        2    -0.19109    6.31086    5.59096   56.14250
      95      444        2    -0.19040    6.31086    1.69813   64.16055
      96      444        2    -0.19906    6.27472    7.23086   72.21974
      97      444        2    -0.29953    6.78931    9.15928   15.87069
      98      444        2    -0.31470    6.83314    5.21664   24.00910
      99      444        2    -0.31997    6.83314    1.32382   32.02800
     100      444        2    -0.32138    6.83314    6.91459   40.04690
     101      444        2    -0.31825    6.83314    3.02166   48.06580
     102      444        2    -0.31706    6.83314    8.61244   56.08470
     103      444        2    -0.31805    6.83314    4.71951   64.10360
     104      444        2    -0.32069    6.82938    0.77902   72.15956
     105      444        2    -0.31562    2.88065    4.09662   17.52955
     106      444        2    -0.31511    2.86036    0.16758   25.57820
     107      444        2    -0.31985    2.86036    5.75825   33.59710
     108      444        2    -0.31882    2.86036    1.86542   41.61515
     109      444        2    -0.31894    2.86036    7.45620   49.63405
     110      444        2    -0.32088    2.86036    3.56327   57.65295
     111      444        2    -0.32040    2.86036    9.15404   65.67185
     112      444        2    -0.31355    2.90070    5.23908   73.81799
     113      444        2    -0.31121    1.98194    8.84244   17.50889
     114      444        2    -0.31492    1.98639    4.90938   25.57820
     115      444        2    -0.31987    1.98639    1.01645   33.59710
     116      444        2    -0.31882    1.98639    6.60722   41.61515
     117      444        2    -0.31893    1.98639    2.71440   49.63405
     118      444        2    -0.32087    1.98639    8.30507   57.65295
     119      444        2    -0.32073    1.98639    4.41224   65.67185
     120      444        2    -0.32314    1.95799    0.51600   73.82667
     121      444        2    -0.26427    7.76460    4.40623   15.87171
     122      444        2    -0.31486    7.70711    0.47484   24.00910
     123      444        2    -0.31999    7.70711    6.06562   32.02800
     124      444        2    -0.32139    7.70711    2.17279   40.04690
     125      444        2    -0.31826    7.70711    7.76346   48.06580
     126      444        2    -0.31702    7.70711    3.87064   56.08470
     127      444        2    -0.31820    7.70711    9.46131   64.10360
     128      444        2    -0.31619    7.69927    5.52365   72.15837
     129      444        3    -0.49576    0.69255    1.36933   20.00917
     130      444        3    -0.49905    0.71780    6.92654   28.06105
     131      444        3    -0.50146    0.71780    3.03361   36.07995
     132      444        3    -0.50230    0.71780    8.62439   44.09885
     133      444        3    -0.49851    0.71780    4.73156   52.11775
     134      444        3    -0.48733    0.71780    0.83863   60.13665
     135      444        3    -0.50311    0.74553    6.39336   68.18828
     136      444        3    -0.49031    8.94929    7.97726   21.49310
     137      444        3    -0.49164    8.97570    4.04845   29.54515
     138      444        3    -0.49433    8.97570    0.15553   37.56320
     139      444        3    -0.49610    8.97570    5.74630   45.58210
     140      444        3    -0.50411    8.97570    1.85347   53.60100
     141      444        3    -0.49838    8.97570    7.44415   61.61990
     142      444        3    -0.50660    9.01299    3.51385   69.68411
     143      444        3    -0.48371    5.59305    3.23893   21.49795
     144      444        3    -0.49184    5.56455    8.79025   29.54515
     145      444        3    -0.49434    5.56455    4.89733   37.56320
     146      444        3    -0.49608    5.56455    1.00450   45.58210
     147      444        3    -0.50411    5.56455    6.59527   53.60100
     148      444        3    -0.49855    5.56455    2.70235   61.61990
     149      444        3    -0.50745    5.52268    8.24879   69.67068
     150      444        3    -0.48888    4.16598    6.11463   20.00169
     151      444        3    -0.49903    4.12895    2.18474   28.06105
     152      444        3    -0.50147    4.12895    7.77541   36.07995
     153      444        3    -0.50237    4.12895    3.88259   44.09885
     154      444        3    -0.49854    4.12895    9.47336   52.11775
     155      444        3    -0.48735    4.12895    5.58043   60.13665
     156      444        3    -0.50443    4.09609    1.65065   68.18810
     157      444        3    -0.49453    0.32213    0.90006   22.18322
     158      444        3    -0.49390    0.31339    6.47635   30.22770
     159      444        3    -0.49859    0.31339    2.58352   38.24575
     160      444        3    -0.50465    0.31339    8.17420   46.26465
     161      444        3    -0.51265    0.31339    4.28137   54.28355
     162      444        3    -0.50587    0.31339    0.38854   62.30245
     163      444        3    -0.51900    0.38600    5.91903   70.36886
     164      444        3    -0.50308    9.31825    8.45313   19.31787
     165      444        3    -0.50779    9.38011    4.49864   27.37850
     166      444        3    -0.51009    9.38011    0.60572   35.39740
     167      444        3    -0.50825    9.38011    6.19649   43.41630
     168      444        3    -0.50152    9.38011    2.30357   51.43520
     169      444        3    -0.49051    9.38011    7.89434   59.45410
     170      444        3    -0.50845    9.37304    3.98383   67.50453
     171      444        3    -0.49599    5.24211    3.71462   19.32186
     172      444        3    -0.50771    5.16014    9.24044   27.37850
     173      444        3    -0.51010    5.16014    5.34752   35.39740
     174      444        3    -0.50830    5.16014    1.45469   43.41630
     175      444        3    -0.50155    5.16014    7.04537   51.43520
     176      444        3    -0.49046    5.16014    3.15254   59.45410
     177      444        3    -0.50952    5.16375    8.72816   67.49306
     178      444        3    -0.48349    4.52307    5.64728   22.17880
     179      444        3    -0.49413    4.53336    1.73455   30.22770
     180      444        3    -0.49859    4.53336    7.32532   38.24575
     181      444        3    -0.50462    4.53336    3.43240   46.26465
     182      444        3    -0.51265    4.53336    9.02317   54.28355
     183      444        3    -0.50597    4.53336    5.13034   62.30245
     184      444        3    -0.51827    4.45911    1.16694   70.36581
     185      444        4    -0.64146    4.47688    6.02635   76.45758
     186      444        4    -0.64898    0.53064    1.75678   76.48606
     187      444        4    -0.67706    5.72271    7.80627   13.13590
     188      444        4    -0.63219    8.76456    3.00739   12.96904
     189      444        5     0.15586    7.66372    9.01851   16.89639
     190      444        5     0.15148    7.72010    5.05220   25.01380
     191      444        5     0.15330    7.72010    1.15937   33.03270
     192      444        5     0.15257    7.72010    6.75005   41.05160
     193      444        5     0.14673    7.72010    2.85722   49.07050
     194      444        5     0.14430    7.72010    8.44790   57.08940
     195      444        5     0.15420    7.72010    4.55507   65.10830
     196      444        5     0.14818    7.72884    0.59196   73.14794
     197      444        5     0.13070    1.96266    4.28997   16.55681
     198      444        5     0.14737    1.97340    0.33202   24.57350
     199      444        5     0.15153    1.97340    5.92279   32.59240
     200      444        5     0.15080    1.97340    2.02987   40.61130
     201      444        5     0.14800    1.97340    7.62064   48.63020
     202      444        5     0.15093    1.97340    3.72781   56.64910
     203      444        5     0.15421    1.97340    9.31849   64.66715
     204      444        5     0.15229    2.01997    5.37887   72.79757
     205      444        5     0.14069    2.88120    9.03208   16.52043
     206      444        5     0.14761    2.87335    5.07382   24.57350
     207      444        5     0.15152    2.87335    1.18099   32.59240
     208      444        5     0.15080    2.87335    6.77167   40.61130
     209      444        5     0.14799    2.87335    2.87884   48.63020
     210      444        5     0.15097    2.87335    8.46961   56.64910
     211      444        5     0.15436    2.87335    4.57669   64.66715
     212      444        5     0.15079    2.83121    0.64516   72.79842
     213      444        5     0.16149    6.88705    4.26743   16.89418
     214      444        5     0.15117    6.82015    0.31040   25.01380
     215      444        5     0.15331    6.82015    5.90117   33.03270
     216      444        5     0.15258    6.82015    2.00825   41.05160
     217      444        5     0.14674    6.82015    7.59902   49.07050
     218      444        5     0.14427    6.82015    3.70610   57.08940
     219      444        5     0.15419    6.82015    9.29687   65.10830
     220      444        5     0.12827    6.78586    5.32446   73.13128
     221      444        5     0.14042    7.18688    0.81571   15.26243
     222      444        5     0.16231    7.18443    6.39716   23.44895
     223      444        5     0.15904    7.18443    2.50424   31.46785
     224      444        5     0.16412    7.18443    8.09501   39.48675
     225      444        5     0.16516    7.18443    4.20209   47.50565
     226      444        5     0.16936    7.18443    0.30926   55.52455
     227      444        5     0.16750    7.18443    5.90003   63.54345
     228      444        5     0.16668    7.18818    1.96638   71.61335
     229      444        5     0.16332    2.52536    2.90968   18.07797
     230      444        5     0.16805    2.50907    8.47066   26.13750
     231      444        5     0.17092    2.50907    4.57783   34.15640
     232      444        5     0.16790    2.50907    0.68500   42.17530
     233      444        5     0.16343    2.50907    6.27568   50.19420
     234      444        5     0.16066    2.50907    2.38285   58.21310
     235      444        5     0.16896    2.50907    7.97362   66.23200
     236      444        5     0.13401    2.50726    4.10296   74.43169
     237      444        5     0.17185    2.34584    7.65518   18.05315
     238      444        5     0.16804    2.33768    3.72886   26.13750
     239      444        5     0.17089    2.33768    9.31963   34.15640
     240      444        5     0.16789    2.33768    5.42680   42.17530
     241      444        5     0.16344    2.33768    1.53388   50.19420
     242      444        5     0.16068    2.33768    7.12465   58.21310
     243      444        5     0.16890    2.33768    3.23182   66.23200
     244      444        5     0.14973    2.34001    8.85821   74.43688
     245      444        5     0.14565    7.36712    5.54172   15.26379
     246      444        5     0.16291    7.35582    1.65536   23.44895
     247      444        5     0.15902    7.35582    7.24604   31.46785
     248      444        5     0.16412    7.35582    3.35321   39.48675
     249      444        5     0.16519    7.35582    8.94389   47.50565
     250      444        5     0.16933    7.35582    5.05106   55.52455
     251      444        5     0.16736    7.35582    1.15823   63.54345
     252      444        5     0.16323    7.34703    6.71661   71.62074
     253      444        5     0.43389    0.28031    0.61849   20.95420
     254      444        5     0.46182    0.29643    6.18274   29.00370
     255      444        5     0.46542    0.29643    2.28982   37.02175
     256      444        5     0.46870    0.29643    7.88059   45.04065
     257      444        5     0.46547    0.29643    3.98776   53.05955
     258      444        5     0.46639    0.29643    0.09484   61.07845
     259      444        5     0.46368    0.33646    5.63664   69.13118
     260      444        5     0.42652    9.36217    8.73095   20.55036
     261      444        5     0.46407    9.39707    4.79225   28.60250
     262      444        5     0.46463    9.39707    0.89942   36.62140
     263      444        5     0.46250    9.39707    6.49010   44.64030
     264      444        5     0.46532    9.39707    2.59727   52.65920
     265      444        5     0.47018    9.39707    8.18795   60.67810
     266      444        5     0.45519    9.42142    4.26942   68.73398
     267      444        5     0.41402    5.18780    3.99371   20.55317
     268      444        5     0.46407    5.14318    0.05045   28.60250
     269      444        5     0.46465    5.14318    5.64122   36.62140
     270      444        5     0.46242    5.14318    1.74830   44.64030
     271      444        5     0.46526    5.14318    7.33907   52.65920
     272      444        5     0.47066    5.14318    3.44615   60.67810
     273      444        5     0.45719    5.11529    9.00867   68.72446
     274      444        5     0.40135    4.57277    5.36461   20.95114
     275      444        5     0.46177    4.55032    1.44094   29.00370
     276      444        5     0.46541    4.55032    7.03162   37.02175
     277      444        5     0.46881    4.55032    3.13879   45.04065
     278      444        5     0.46557    4.55032    8.72956   53.05955
     279      444        5     0.46610    4.55032    4.83664   61.07845
     280      444        5     0.46526    4.50736    0.88959   69.12744
     281      444        6     0.12245    7.67227    8.20812   17.61973
     282      444        6     0.12002    7.75974    4.20892   25.69465
     283      444        6     0.11956    7.75974    0.31609   33.71270
     284      444        6     0.11965    7.75974    5.90677   41.73160
     285      444        6     0.11622    7.75974    2.01394   49.75050
     286      444        6     0.11323    7.75974    7.60471   57.76940
     287      444        6     0.11510    7.75974    3.71179   65.78830
     288      444        6     0.05413    7.75034    9.22371   73.82182
     289      444        6     0.05037    1.94107    5.13374   15.87366
     290      444        6     0.11704    1.93376    1.17530   23.89265
     291      444        6     0.11279    1.93376    6.76598   31.91155
     292      444        6     0.11381    1.93376    2.87315   39.93045
     293      444        6     0.11606    1.93376    8.46392   47.94935
     294      444        6     0.12022    1.93376    4.57100   55.96825
     295      444        6     0.11995    1.93376    0.67817   63.98715
     296      444        6     0.11911    2.00896    6.18377   72.06844
     297      444        6     0.05231    2.89685    0.40265   15.84978
     298      444        6     0.11748    2.91299    5.91710   23.89265
     299      444        6     0.11279    2.91299    2.02418   31.91155
     300      444        6     0.11381    2.91299    7.61495   39.93045
     301      444        6     0.11610    2.91299    3.72212   47.94935
     302      444        6     0.12019    2.91299    9.31280   55.96825
     303      444        6     0.11998    2.91299    5.41997   63.98715
     304      444        6     0.11801    2.84910    1.45389   72.07328
     305      444        6     0.12420    6.87795    3.46186   17.62279
     306      444        6     0.11990    6.78051    8.95072   25.69465
     307      444        6     0.11957    6.78051    5.05789   33.71270
     308      444        6     0.11966    6.78051    1.16497   41.73160
     309      444        6     0.11622    6.78051    6.75574   49.75050
     310      444        6     0.11324    6.78051    2.86291   57.76940
     311      444        6     0.11505    6.78051    8.45359   65.78830
     312      444        6     0.08212    6.76461    4.46710   73.79640
     313      444        6     0.08070    6.72774    1.23557   14.37214
     314      444        6     0.11750    6.68338    6.84669   22.60065
     315      444        6     0.11407    6.68338    2.95376   30.61955
     316      444        6     0.11393    6.68338    8.54453   38.63845
     317      444        6     0.11615    6.68338    4.65171   46.65650
     318      444        6     0.11848    6.68338    0.75878   54.67540
     319      444        6     0.11980    6.68338    6.34955   62.69430
     320      444        6     0.12000    6.67851    2.43285   70.77755
     321      444        6     0.11802    3.04641    2.43531   18.90179
     322      444        6     0.11971    3.01012    8.02113   26.98665
     323      444        6     0.11889    3.01012    4.12831   35.00555
     324      444        6     0.11770    3.01012    0.23548   43.02445
     325      444        6     0.11354    3.01012    5.82615   51.04335
     326      444        6     0.11273    3.01012    1.93333   59.06225
     327      444        6     0.11615    3.01012    7.52400   67.08115
     328      444        6     0.08611    2.97700    3.68425   75.31587
     329      444        6     0.12023    1.83753    7.18443   18.88793
     330      444        6     0.11975    1.83663    3.27933   26.98665
     331      444        6     0.11888    1.83663    8.87011   35.00555
     332      444        6     0.11771    1.83663    4.97728   43.02445
     333      444        6     0.11354    1.83663    1.08435   51.04335
     334      444        6     0.11275    1.83663    6.67513   59.06225
     335      444        6     0.11625    1.83663    2.78220   67.08115
     336      444        6     0.02984    1.87367    8.44740   75.32887
     337      444        6     0.06709    7.84048    5.96678   14.38276
     338      444        6     0.11797    7.85687    2.10489   22.60065
     339      444        6     0.11407    7.85687    7.69556   30.61955
     340      444        6     0.11394    7.85687    3.80273   38.63845
     341      444        6     0.11611    7.85687    9.39351   46.65650
     342      444        6     0.11851    7.85687    5.50058   54.67540
     343      444        6     0.11972    7.85687    1.60775   62.69430
     344      444        6     0.11847    7.86829    7.19249   70.79684
     345      444        6     0.23208    3.69808    6.30625   77.01901
     346      444        6     0.21666    5.27355    6.45042   76.88004
     347      444        6     0.24300    0.11770    2.54130   76.93860
     348      444        6     0.21651    0.06671    0.95458   76.85785
     349      444        6     0.23049    5.27403    8.56767   12.68243
     350      444        6     0.26398    5.38638    6.99725   12.67052
     351      444        6     0.19253    9.20644    3.86934   12.73988
     352      444        6     0.21309    9.45472    2.33873   12.72118
     353      444        1     0.70717    0.49676   10.11169   18.13356
     354      444        1     0.68934    0.53809   15.66074   26.19190
     355      444        1     0.69108    0.53809   11.76782   34.21080
     356      444        1     0.69007    0.53809   17.35859   42.22970
     357      444        1     0.68692    0.53809   13.46576   50.24860
     358      444        1     0.68869    0.53809    9.57284   58.26750
     359      444        1     0.69627    0.53809   15.16361   66.28555
     360      444        1     0.55498    0.51198   11.32560   74.38307
     361      444        1     0.33782    9.23219   12.54446   15.19290
     362      444        1     0.69798    9.15541   18.17428   23.39540
     363      444        1     0.69142    9.15541   14.28145   31.41430
     364      444        1     0.69197    9.15541   10.38862   39.43320
     365      444        1     0.68848    9.15541   15.97930   47.45210
     366      444        1     0.68620    9.15541   12.08647   55.47100
     367      444        1     0.68963    9.15541   17.67715   63.48905
     368      444        1     0.69006    9.19785   13.76913   71.53532
     369      444        1     0.55120    5.37697   17.28485   15.27569
     370      444        1     0.70124    5.38484   13.43248   23.39540
     371      444        1     0.69138    5.38484    9.53965   31.41430
     372      444        1     0.69196    5.38484   15.13042   39.43320