
16034 atoms
17455 bonds
30888 angles
45724 dihedrals
4576 impropers

9 atom types
11 bond types
18 angle types
7 dihedral types
4 improper types

0.000000 400.000000 xlo xhi
0.000000 400.000000 ylo yhi
0.000000 400.000000 zlo zhi

Masses

 1 12.01 # ca
 2 16.0 # o
 3 12.01 # c
 4 14.01 # n
 5 12.01 # c3
 6 19.0 # f
 7 1.008 # ha
 8 1.008 # hn
 9 1.008 # hc

Pair Coeffs

 1 0.086 3.3996695084235347 # ca
 2 0.21 2.959921901149463 # o
 3 0.086 3.3996695084235347 # c
 4 0.17 3.249998523775958 # n
 5 0.1094 3.3996695084235347 # c3
 6 0.061 3.1181455134911875 # f
 7 0.015 2.59964245953351 # ha
 8 0.0157 1.069078461768407 # hn
 9 0.0157 2.649532787749369 # hc

Bond Coeffs

 1 321.0 1.5156 # c3,ca
 2 300.9 1.5375 # c3,c3
 3 384.2 1.4121 # ca,n
 4 330.6 1.0969 # c3,hc
 5 637.7 1.2183 # c,o
 6 403.2 1.0129 # hn,n
 7 356.9 1.3497 # c3,f
 8 461.1 1.3984 # ca,ca
 9 427.6 1.3789 # c,n
 10 345.9 1.4906 # c,ca
 11 345.8 1.086 # ca,ha

Angle Coeffs

 1 70.89 107.36 # f,c3,f
 2 68.72 122.6 # ca,c,o
 3 67.87 120.19 # ca,ca,n
 4 67.68 115.25 # ca,c,n
 5 46.8 110.47 # ca,c3,hc
 6 74.22 123.05 # n,c,o
 7 48.33 117.55 # c,n,hn
 8 63.56 112.24 # ca,c3,ca
 9 62.86 111.51 # c3,c3,c3
 10 66.11 109.24 # c3,c3,f
 11 64.28 120.33 # c,ca,ca
 12 66.62 120.02 # ca,ca,ca
 13 63.74 127.08 # c,n,c
 14 39.4 107.58 # hc,c3,hc
 15 48.18 119.88 # ca,ca,ha
 16 63.15 112.07 # c3,c3,ca
 17 63.53 120.77 # c3,ca,ca
 18 63.82 123.71 # c,n,ca

Dihedral Coeffs

 1 2 2.5 2 180 2.0 1 0 # hn,n,c,o
 2 1 3.625 2 180 # X,ca,ca,X
 3 1 0.0 2 0 # X,c3,ca,X
 4 1 1.0 2 180 # X,c,ca,X
 5 1 0.15555555555555556 3 0 # X,c3,c3,X
 6 1 2.5 2 180 # X,c,n,X
 7 1 0.45 2 180 # X,ca,n,X

Improper Coeffs

 1 1.1 -1 2 # n,X,X,hn
 2 1.1 -1 2 # ca,ca,ca,c3
 3 1.1 -1 2 # ca,X,X,ha
 4 10.5 -1 2 # c,X,X,o

Atoms

 1 1 1 -0.004194 300.544283673257 260.94226355881 3.27174004584622
 2 1 1 -0.097141 300.450508850288 261.994981602425 2.32405744981308
 3 1 1 -0.172015 301.547740581971 262.896987939854 2.21194614696518
 4 1 2 -0.377994 300.992520852079 259.284259287324 5.81419833790494
 5 1 1 0.033493 301.621149270451 260.915286554635 4.15394900030378
 6 1 1 -0.063739 302.657013713271 262.817974021612 3.08610114540597
 7 1 2 -0.398381 304.533195642043 262.276602870021 5.53361316294039
 8 1 1 0.032144 302.649767761516 261.829098766594 4.07652551864039
 9 1 3 0.032313 301.772401500027 260.123497557438 5.39404559064117
 10 1 4 0.461698 302.914091418598 260.630545574181 6.00721702951512
 11 1 3 0.091945 303.534385240595 261.632356264226 5.25785715161661
 12 1 1 -0.10563 296.017644625984 260.95627255401 3.70000243055433
 13 1 5 -0.099376 299.082868982782 262.190782036892 1.59625549490262
 14 1 1 -0.043296 297.998028967328 262.062093968891 2.71201595061078
 15 1 1 -0.073043 296.828480526583 261.259120092213 2.58331916346149
 16 1 1 -0.117827 296.394612535818 261.466327409942 4.94856550517075
 17 1 1 -0.037562 298.262699317167 262.660158171753 3.97326023070514
 18 1 1 -0.083705 297.477857798278 262.308411692334 5.07211098346596
 19 1 5 0.396 298.998133530404 261.077033278868 0.482109498764704
 20 1 5 0.310495 298.89392217268 263.607170227132 0.933700891566376
 21 1 6 -0.130298 298.919653488265 259.83598004854 1.01356435750446
 22 1 6 -0.128745 300.099812134822 261.078913079484 -0.302051373643847
 23 1 6 -0.120019 297.935097558956 261.21941420439 -0.341085186322129
 24 1 6 -0.104287 299.699567019389 263.803899470711 -0.134301836235714
 25 1 6 -0.095507 299.136837081375 264.609358483013 1.80826134648549
 26 1 6 -0.104872 297.624399897965 263.788540156308 0.504129196861182
 27 1 3 0.456145 297.710940554149 262.573192033359 6.51398138524658
 28 1 3 0.550902 295.882859286672 261.175120717082 6.31790768106328
 29 1 4 0.015704 296.742244820079 261.839987626096 7.18710890703462
 30 1 2 -0.456801 298.639664098972 263.211039602041 6.98170854275768
 31 1 2 -0.487703 294.948500874506 260.44075320816 6.59249861145729
 32 1 1 -0.116566 296.703073807816 261.718824018993 8.60796710655248
 33 1 1 -0.050109 295.740949652416 262.432646450343 9.35758859537134
 34 1 1 0.154929 295.743714154682 262.335358685016 10.763192122631
 35 1 1 0.041555 297.655219006283 260.908398321986 9.27172706938878
 36 1 1 -0.223109 297.643855237728 260.832053665213 10.6748107221146
 37 1 1 -0.080449 296.696196167787 261.542128810487 11.4266247550544
 38 1 5 -0.108008 298.716911745288 260.120901456764 8.51039078272777
 39 1 5 -0.182228 296.724007362924 261.453988932673 12.9448002922911
 40 1 5 -0.345523 294.703357450118 263.315110635451 8.66868630430794
 41 1 7 0.155183 299.72939619336 260.239660744879 3.42863841379101
 42 1 7 0.172904 301.531337661838 263.711234787225 1.49396580192978
 43 1 7 0.158028 303.459171851947 263.552299424942 3.0503998487703
 44 1 7 0.153129 295.165705445102 260.284893884601 3.61067128289834
 45 1 7 0.142914 296.56529420223 260.804865578682 1.6340218514929
 46 1 7 0.135531 299.141593840049 263.279947440437 4.1356813699501
 47 1 7 0.17765 298.392180658266 260.229518295462 11.1836604772234
 48 1 9 0.046541 299.550202043807 260.770961612562 8.21602015029273
 49 1 9 0.045238 298.309974262491 259.654576101919 7.60454174404661
 50 1 9 0.051941 299.134507759701 259.313740924728 9.12517084029848
 51 1 9 0.087961 295.854548017467 261.946780274727 13.397440793565
 52 1 9 0.066782 297.626435818427 261.932432646745 13.3451724582349
 53 1 9 0.075908 296.72224534269 260.408020357626 13.2758446660539
 54 1 9 0.105172 295.176592933602 264.030605317894 7.98500580950903
 55 1 9 0.115625 294.122064895837 263.897022026016 9.39457341913231
 56 1 9 0.140296 293.99229476572 262.705901531618 8.09565943385244
 57 1 1 -0.004194 302.476637833953 263.483401696896 17.4317309876655
 58 1 1 -0.097141 301.955181951599 264.73806117164 17.0141545250964
 59 1 1 -0.172015 302.118769499753 265.856922420565 17.8818007436918
 60 1 2 -0.377994 303.905619616747 261.104427682072 18.8526235299921
 61 1 1 0.033493 303.159679345468 263.397806698402 18.651313294925
 62 1 1 -0.063739 302.813993597836 265.74953873259 19.1038885838661
 63 1 2 -0.398381 304.507092549425 264.841388876072 21.5420671412802
 64 1 1 0.032144 303.332089963127 264.502914097565 19.4584841676245
 65 1 3 0.032313 303.838638109101 262.240042792046 19.2929495024639
 66 1 4 0.461698 304.402305760323 262.751989664228 20.4630835107845
 67 1 3 0.091945 304.135739594079 264.107601858699 20.641011550214
 68 1 1 -0.10563 304.28808406617 263.707819040222 13.5705954297885
 69 1 5 -0.099376 301.208064119691 264.830516721284 15.6476527106132
 70 1 1 -0.043296 302.057093987351 264.08009555662 14.5795850021581
 71 1 1 -0.073043 303.462743534981 264.304025861593 14.5435789226219
 72 1 1 -0.117827 303.683695746777 262.880073627483 12.6214605641498
 73 1 1 -0.037562 301.485389417395 263.231865281523 13.5921387212898
 74 1 1 -0.083705 302.325401984645 262.641477975422 12.6387122502096
 75 1 5 0.396 301.04386537433 266.304860354524 15.1060511821376
 76 1 5 0.310495 299.779363860548 264.20274742089 15.87731604118
 77 1 6 -0.130298 300.154753982056 267.039187688146 15.8122997588611
 78 1 6 -0.128745 300.619115108379 266.321130210432 13.8218742878728
 79 1 6 -0.120019 302.216628333048 266.979192480093 15.1172977809274
 80 1 6 -0.104287 299.18408735194 264.718072180028 16.9771250441529
 81 1 6 -0.095507 299.84509000798 262.866825258008 16.0757295353341
 82 1 6 -0.104872 298.927575027537 264.411693565213 14.8481118219739
 83 1 3 0.456145 302.005266897442 261.722028671613 11.5129601816942
 84 1 3 0.550902 304.273585438269 262.142450178968 11.473928013622
 85 1 4 0.015704 303.212126941651 261.485562630883 10.8643499963584
 86 1 2 -0.456801 300.910306276257 261.253157512509 11.2551613985024
 87 1 2 -0.487703 305.455952790256 262.10575764793 11.1782107667094
 88 1 1 -0.116566 303.370887198629 260.628224888596 9.73341636742345
 89 1 1 -0.050109 303.047513934106 261.081378330723 8.43055098743026
 90 1 1 0.154929 303.303580638161 260.236329149369 7.31680756699312
 91 1 1 0.041555 303.893697563727 259.331320777069 9.9261418132422
 92 1 1 -0.223109 304.147364207263 258.512949535096 8.81615907348643
 93 1 1 -0.080449 303.873084417795 258.956098857031 7.5138899905167
 94 1 5 -0.108008 304.190591097538 258.79150863501 11.3209082469392
 95 1 5 -0.182228 304.178208812904 258.018943244639 6.3482113141342
 96 1 5 -0.345523 302.434747174879 262.479534294198 8.25368942154786
 97 1 7 0.155183 302.371006424923 262.591357328497 16.8189810002038
 98 1 7 0.172904 301.716426600827 266.831857385322 17.6272222114497
 99 1 7 0.158028 302.953690272274 266.608450287265 19.7574306777636
 100 1 7 0.153129 305.360558122591 263.891833856232 13.5466021516927
 101 1 7 0.142914 303.925323792776 264.965099820592 15.2720423848703
 102 1 7 0.135531 300.420164574596 263.033411054659 13.5346565134031
 103 1 7 0.17765 304.560258797022 257.519739722076 8.97073246923291
 104 1 9 0.046541 303.343609393662 258.955055693347 11.9991295101777
 105 1 9 0.045238 305.074126888522 259.277840763888 11.7521811610811
 106 1 9 0.051941 304.382870714356 257.711768782123 11.3035394259419
 107 1 9 0.087961 304.688569607421 258.541770538848 5.52933239149013
 108 1 9 0.066782 303.257605515295 257.573134545499 5.94968398282267
 109 1 9 0.075908 304.833632462808 257.194039221588 6.65501304539052
 110 1 9 0.105172 301.970816167653 262.644093069213 7.27531967906839
 111 1 9 0.115625 303.198243942683 263.257872804421 8.38468316780162
 112 1 9 0.140296 301.63058378198 262.666960385329 8.9761206090899
 113 1 1 -0.004194 301.416645462792 255.895196918557 28.8897676049911
 114 1 1 -0.097141 302.41801577835 256.770161986668 29.3886493451906
 115 1 1 -0.172015 303.680238837004 256.207808606353 29.7385933160619
 116 1 2 -0.377994 299.770792159873 253.5854578251 27.6886604343243
 117 1 1 0.033493 301.700209025943 254.533202131553 28.7774828516689
 118 1 1 -0.063739 303.929018881829 254.819550588775 29.6589011688437
 119 1 2 -0.398381 303.796973781235 251.748519863917 29.0893057843949
 120 1 1 0.032144 302.909617231141 253.99883172582 29.1690650176011
 121 1 3 0.032313 300.868553924182 253.453275636607 28.202058445489
 122 1 4 0.461698 301.634215349659 252.297705453456 28.3304768372736
 123 1 3 0.091945 302.889501827642 252.538161483076 28.8893282375689
 124 1 1 -0.10563 304.617244142591 261.105016498974 28.4413159460837
 125 1 5 -0.099376 302.167395395884 258.294878667509 29.6123888970284
 126 1 1 -0.043296 303.205020993333 259.101217698844 28.7827969635665
 127 1 1 -0.073043 303.816088356435 260.292860339889 29.2696712017381
 128 1 1 -0.117827 304.784016248672 260.72107610747 27.1077016201239
 129 1 1 -0.037562 303.430911393388 258.733716837921 27.4300434330282
 130 1 1 -0.083705 304.206361347465 259.569272317061 26.6175451007218
 131 1 5 0.396 302.247859635099 258.540919466591 31.1748756590188
 132 1 5 0.310495 300.753372128 258.790122721539 29.1082533449883
 133 1 6 -0.130298 303.511550366236 258.451766711554 31.6473266773336
 134 1 6 -0.128745 301.523362367245 257.622339822226 31.8547398262113
 135 1 6 -0.120019 301.78418997642 259.749440395116 31.5662893952816
 136 1 6 -0.104287 299.736207380283 258.25168419454 29.8147831664721
 137 1 6 -0.095507 300.533532186862 258.499751635143 27.8055666779553
 138 1 6 -0.104872 300.622226845308 260.132988405413 29.1980410941663
 139 1 3 0.456145 304.489530376298 259.492722998107 25.1591409719298
 140 1 3 0.550902 305.462118969158 261.416463227289 25.9816174029987
 141 1 4 0.015704 305.21498108049 260.640052994614 24.8560110576978
 142 1 2 -0.456801 304.048588200203 258.660986146645 24.3856625059974
 143 1 2 -0.487703 306.068001482403 262.472545208964 26.0521222434439
 144 1 1 -0.116566 305.649000758887 260.994962041406 23.5407777714442
 145 1 1 -0.050109 304.755428392025 261.59652594904 22.6165248568082
 146 1 1 0.154929 305.23799749519 262.013927753642 21.3487663109543
 147 1 1 0.041555 307.0040703163 260.802841336076 23.1904061699187
 148 1 1 -0.223109 307.455236174246 261.18722263179 21.919190011813
 149 1 1 -0.080449 306.589901638877 261.793443318907 20.9964440402654
 150 1 5 -0.108008 308.021495074136 260.241307384274 24.1778866725694
 151 1 5 -0.182228 307.155370890979 262.244477666231 19.6517938240153
 152 1 5 -0.345523 303.294882029043 261.861214166329 23.0055849539777
 153 1 7 0.155183 300.43320613925 256.227865285242 28.5792294515878
 154 1 7 0.172904 304.480511888219 256.850786497034 30.0966759714585
 155 1 7 0.158028 304.885268414736 254.393909787661 29.9536436702625
 156 1 7 0.153129 305.052555313271 262.032397395134 28.8088694320116
 157 1 7 0.142914 303.644156233676 260.637509429993 30.2828013660578
 158 1 7 0.135531 302.958764237964 257.858246453779 26.9912745985442
 159 1 7 0.17765 308.502205346107 261.047331940684 21.663505404308
 160 1 9 0.046541 308.428419930488 261.043832206287 24.8059909172898
 161 1 9 0.045238 308.863338987351 259.765800705233 23.6599000128272
 162 1 9 0.051941 307.583472494282 259.488956070406 24.8427040568635
 163 1 9 0.087961 307.071669792857 263.33187683339 19.5279663026995
 164 1 9 0.066782 306.631267118653 261.761647909244 18.8170268735423
 165 1 9 0.075908 308.217514723894 261.988576023425 19.5511299997858
 166 1 9 0.105172 302.618080541756 261.831817672229 22.1432772345758
 167 1 9 0.115625 303.192127459086 262.845851337773 23.4815100625418
 168 1 9 0.140296 302.899217430893 261.112525087972 23.700735419504
 169 1 1 -0.004194 295.687778040181 243.1394418205 34.7535653975942
 170 1 1 -0.097141 295.715160860109 243.727117058159 33.4595487492411
 171 1 1 -0.172015 296.353848274273 243.00850177394 32.4077381815648
 172 1 2 -0.377994 296.233425946393 241.494284397529 37.3253252301003
 173 1 1 0.033493 296.357762557178 241.925144535603 34.953354488578
 174 1 1 -0.063739 297.00618970423 241.781046280594 32.6286690092347
 175 1 2 -0.398381 298.473737306125 239.350327524612 33.8687074408545
 176 1 1 0.032144 297.013537993205 241.275230357142 33.9272565165794
 177 1 3 0.032313 296.630599085521 241.189840905813 36.2134624247563
 178 1 4 0.461698 297.480048254533 240.14301976341 35.8510988550047
 179 1 3 0.091945 297.746035755911 240.112055745253 34.4848577180561
 180 1 1 -0.10563 298.894761623693 246.256359729538 32.5906440343909
 181 1 5 -0.099376 295.223404649417 245.177642395988 33.1622849546712
 182 1 1 -0.043296 296.445947552836 245.898410615713 32.5249555400554
 183 1 1 -0.073043 297.718229860348 245.725590615766 33.1433406851002
 184 1 1 -0.117827 298.780212084105 246.980075610819 31.4052053239706
 185 1 1 -0.037562 296.369689283456 246.682226796559 31.3418604631513
 186 1 1 -0.083705 297.557023477865 247.201957809358 30.8046075105096
 187 1 5 0.396 294.82385419787 246.010608448108 34.4440660095643
 188 1 5 0.310495 293.963683585082 245.068856436729 32.2149561230944
 189 1 6 -0.130298 293.712452693708 245.536622547071 35.0504022546996
 190 1 6 -0.128745 294.588036793673 247.308234396538 34.1432253377119
 191 1 6 -0.120019 295.803471768112 246.026226176779 35.3758621850357
 192 1 6 -0.104287 294.273413312546 244.579765218046 30.9933334130351
 193 1 6 -0.095507 293.343532950354 246.252203871998 32.0073298779101
 194 1 6 -0.104872 293.036616092325 244.228708311354 32.7280678665806
 195 1 3 0.456145 297.792711597195 248.022758951729 29.5831656841876
 196 1 3 0.550902 299.832226480457 247.632494570718 30.5928929760197
 197 1 4 0.015704 299.166733113493 248.234004064945 29.5356907972089
 198 1 2 -0.456801 296.945346855497 248.420322844572 28.8026952070813
 199 1 2 -0.487703 301.026097731439 247.644752060907 30.840480536311
 200 1 1 -0.116566 299.842879284937 249.022597600873 28.5603746997645
 201 1 1 -0.050109 300.36773604763 250.286761462016 28.9206277508758
 202 1 1 0.154929 301.138288278528 251.013233276981 27.9807720217767
 203 1 1 0.041555 300.062666015443 248.503188703433 27.2660073290563
 204 1 1 -0.223109 300.829250610927 249.235979183375 26.3469876826537
 205 1 1 -0.080449 301.379526718584 250.479195313407 26.6947583676889
 206 1 5 -0.108008 299.502954853461 247.150284260927 26.8415355106765
 207 1 5 -0.182228 302.235271090732 251.214026736238 25.6717368041051
 208 1 5 -0.345523 300.144001503399 250.852144517435 30.3312531172872
 209 1 7 0.155183 295.233499994787 243.623867647063 35.6124224148159
 210 1 7 0.172904 296.411804385394 243.43872415379 31.4107704373225
 211 1 7 0.158028 297.540532570703 241.267847246002 31.8323024466874
 212 1 7 0.153129 299.864213063758 246.102665612272 33.0611217937732
 213 1 7 0.142914 297.807273554442 245.145425711867 34.0579838476646
 214 1 7 0.135531 295.432660878969 246.8754890434 30.8289854363354
 215 1 7 0.17765 301.007929386733 248.826437292127 25.356676305162
 216 1 9 0.046541 298.4198943602 247.213388759158 26.6768949013512
 217 1 9 0.045238 299.689262237909 246.379575687198 27.5992690673314
 218 1 9 0.051941 299.956983050907 246.799698802 25.906694261098
 219 1 9 0.087961 301.839260508022 252.2159411354 25.4756535433858
 220 1 9 0.066782 302.270351907914 250.684960592169 24.711179069523
 221 1 9 0.075908 303.272246067284 251.309275694399 26.0215867490437
 222 1 9 0.105172 299.284466566163 250.406418232258 30.8435549720304
 223 1 9 0.115625 299.938096043299 251.9279810659 30.3189912867655
 224 1 9 0.140296 301.027709041439 250.683453575013 30.9628416488133
 225 1 1 -0.004194 300.297648279942 243.863443816246 45.1514002266164
 226 1 1 -0.097141 301.204091505902 242.76706665049 45.0816946212566
 227 1 1 -0.172015 300.792159439743 241.525756755264 45.6478584860391
 228 1 2 -0.377994 297.828747472732 245.74241517822 45.4081409616783
 229 1 1 0.033493 299.032491006001 243.665180028477 45.7179794545763
 230 1 1 -0.063739 299.525826279051 241.357215359995 46.2425528198036
 231 1 2 -0.398381 296.593200558217 241.651911181913 47.2209304958297
 232 1 1 0.032144 298.656763870034 242.448245222349 46.2473641382734
 233 1 3 0.032313 297.869054438162 244.587794711014 45.7984328111283
 234 1 4 0.461698 296.848444836438 243.835296897503 46.3782717835411
 235 1 3 0.091945 297.246675767135 242.539979514085 46.6989484589525
 236 1 1 -0.10563 303.531754816083 240.250507471496 41.5046642668056
 237 1 5 -0.099376 302.561121989169 242.818860836722 44.3033293141186
 238 1 1 -0.043296 302.479395499398 241.771013895669 43.1553649152391
 239 1 1 -0.073043 303.627998314176 241.127353775126 42.6100506975553
 240 1 1 -0.117827 302.264840400889 240.0169342555 40.9537839613448
 241 1 1 -0.037562 301.221868933069 241.512185969536 42.5526851232014
 242 1 1 -0.083705 301.146631809501 240.623235221279 41.4819192867502
 243 1 5 0.396 303.718790711775 242.530721457136 45.3419121582419
 244 1 5 0.310495 302.831949829421 244.204707976215 43.6013602412211
 245 1 6 -0.130298 303.771683370338 241.228785804184 45.7008774448716
 246 1 6 -0.128745 303.543181001753 243.24182711219 46.4787899794352
 247 1 6 -0.120019 304.955883250278 242.837998596659 44.8921330481129
 248 1 6 -0.104287 302.962235914611 245.215962211064 44.4891346486608
 249 1 6 -0.095507 301.841043372243 244.53440342891 42.7418271455845
 250 1 6 -0.104872 303.956505035235 244.192054054513 42.8497406936815
 251 1 3 0.456145 299.964696185724 240.214259528766 40.6907657146927
 252 1 3 0.550902 301.83159972843 239.213764101343 39.7721822049145
 253 1 4 0.015704 300.454149824453 239.395087821937 39.6839570385446
 254 1 2 -0.456801 298.812143648675 240.550587109666 40.9002354358147
 255 1 2 -0.487703 302.557358405435 238.579183965075 39.0260760814263
 256 1 1 -0.116566 299.609387814027 238.868924053904 38.6618400981458
 257 1 1 -0.050109 299.092009554673 239.733007764802 37.6665568634283
 258 1 1 0.154929 298.084763880939 239.258375948388 36.7870646653437
 259 1 1 0.041555 299.18708242746 237.523887373157 38.7258010825213
 260 1 1 -0.223109 298.23027206175 237.054504532572 37.8126572803554
 261 1 1 -0.080449 297.658301267265 237.911988755676 36.8595754848182
 262 1 5 -0.108008 299.720206572165 236.572871625279 39.7907801603064
 263 1 5 -0.182228 296.578516625081 237.359476651286 35.9334368634955
 264 1 5 -0.345523 299.595032356674 241.182553664205 37.579752839379
 265 1 7 0.155183 300.515014465928 244.841906001963 44.737644479331
 266 1 7 0.172904 301.437952519627 240.654291780664 45.5834818317288
 267 1 7 0.158028 299.207419522627 240.397590625127 46.6448355042346
 268 1 7 0.153129 304.417266366566 239.782878013469 41.0777717811061
 269 1 7 0.142914 304.615323135587 241.324140015813 43.0146458953254
 270 1 7 0.135531 300.309417520555 242.003153134945 42.8803241774846
 271 1 7 0.17765 297.903629696969 236.019392786547 37.8679965943329
 272 1 9 0.046541 299.288920956243 235.569137078215 39.6918666656354
 273 1 9 0.045238 299.481112495011 236.934652381715 40.79845395308
 274 1 9 0.051941 300.809171675465 236.465779205548 39.7144326820787
 275 1 9 0.087961 296.956411137512 237.252470973334 34.9080685334011
 276 1 9 0.066782 295.696217605291 238.011585358021 35.9073327588735
 277 1 9 0.075908 296.234212188785 236.369533332501 36.2576617094573
 278 1 9 0.105172 300.638835401038 241.280680028485 37.9014787799089
 279 1 9 0.115625 298.985656366434 241.8416596339 38.2143974905275
 280 1 9 0.140296 299.569073493806 241.582055778924 36.558974239401
 281 1 1 -0.004194 289.026700231892 245.508727155177 40.0415815345588
 282 1 1 -0.097141 287.731566854637 245.1377577763 40.4967776626783
 283 1 1 -0.172015 286.697369180949 246.11868116293 40.4393937685845
 284 1 2 -0.377994 291.639968957169 246.998689239448 39.2408819049095
 285 1 1 0.033493 289.260507898308 246.831273675088 39.6508999022844
 286 1 1 -0.063739 286.949003639695 247.439328335109 40.0168986493367
 287 1 2 -0.398381 288.234794433367 250.154362700852 39.2419389937811
 288 1 1 0.032144 288.251670248213 247.771983485147 39.6466644556071
 289 1 3 0.032313 290.534915731577 247.510796905829 39.3041373129177
 290 1 4 0.461698 290.192483319946 248.851113852628 39.1366461024357
 291 1 3 0.091945 288.830668022688 249.090832222941 39.2959933932514
 292 1 1 -0.10563 289.929416097485 241.642495979136 43.3258897203743
 293 1 5 -0.099376 287.502545412977 243.688418671978 41.0384819177311
 294 1 1 -0.043296 288.616356927144 243.334058446238 42.0762116037875
 295 1 1 -0.073043 288.94357356731 241.979625695293 42.3766823404078
 296 1 1 -0.117827 290.610885456015 242.68247594837 43.9628173591028
 297 1 1 -0.037562 289.299693834566 244.354718995537 42.7943345765847
 298 1 1 -0.083705 290.316012310961 243.999860605921 43.6900932817375
 299 1 5 0.396 287.533417996077 242.742898572919 39.7740823424825
 300 1 5 0.310495 286.128225368349 243.513183348753 41.7921985663648
 301 1 6 -0.130298 288.793263754893 242.577957484577 39.3125573037581
 302 1 6 -0.128745 286.811385003599 243.257810898762 38.7524530631112
 303 1 6 -0.120019 287.035206872841 241.506103701346 39.9960022882612
 304 1 6 -0.104287 285.058424121931 243.61665337794 40.971032994617
 305 1 6 -0.095507 285.98891509543 244.430818213636 42.7762760748015
 306 1 6 -0.104872 286.01777971724 242.308696916982 42.3970199398544
 307 1 3 0.456145 291.255861278572 244.854199103096 44.4655513917124
 308 1 3 0.550902 291.714582904766 242.647145139615 44.9585425599355
 309 1 4 0.015704 292.064527559827 243.975403689214 45.1823735984706
 310 1 2 -0.456801 291.314432887065 246.071500062921 44.4202057206206
 311 1 2 -0.487703 292.205451178885 241.641763207818 45.4434330307415
 312 1 1 -0.116566 293.149066377243 244.37355214235 46.0285237213115
 313 1 1 -0.050109 294.484083401179 244.014800744914 45.7032283485523
 314 1 1 0.154929 295.530656079727 244.317649169461 46.6119240647663
 315 1 1 0.041555 292.881903572964 245.077771053312 47.22597443176
 316 1 1 -0.223109 293.940055195957 245.425701446391 48.0799746064844
 317 1 1 -0.080449 295.258577183114 245.043511668062 47.7923445183093
 318 1 5 -0.108008 291.464674795608 245.459639583386 47.6416157849402
 319 1 5 -0.182228 296.364347457988 245.40633437034 48.7789298808177
 320 1 5 -0.345523 294.799065149383 243.276490816589 44.3935272606567
 321 1 7 0.155183 289.859229400131 244.809262010306 40.0600935614961
 322 1 7 0.172904 285.681405941015 245.892830479497 40.7424772783564
 323 1 7 0.158028 286.165907255303 248.194773714786 40.0129311468741
 324 1 7 0.153129 290.168043811884 240.60409177689 43.5486401337933
 325 1 7 0.142914 288.422512699949 241.162206111337 41.8917534216264
 326 1 7 0.135531 289.074296089722 245.408555436352 42.6559853712039
 327 1 7 0.17765 293.727947100147 245.973943905032 48.9939589797838
 328 1 9 0.046541 291.422122066556 245.772426964446 48.6919944925975
 329 1 9 0.045238 290.771649304842 244.617005069292 47.5288989503196
 330 1 9 0.051941 291.089914184505 246.296385723558 47.0398178277542
 331 1 9 0.087961 297.141346597617 246.015477568674 48.2981709667667
 332 1 9 0.066782 296.839551290759 244.50730642754 49.1918725656856
 333 1 9 0.075908 295.979142163367 245.988512575875 49.6253538008456
 334 1 9 0.105172 294.06716280231 243.484759372103 43.6044917620679
 335 1 9 0.115625 294.81631701522 242.189134556492 44.5527164460701
 336 1 9 0.140296 295.76665790112 243.57008850491 43.9674535935538
 337 1 1 -0.004194 296.316106410011 256.241995133543 32.756525097922
 338 1 1 -0.097141 296.592083068716 255.431137884314 31.6238764960943
 339 1 1 -0.172015 296.84881252796 256.078471915014 30.3811453958741
 340 1 2 -0.377994 295.687573777738 258.502755346986 34.7864443444639
 341 1 1 0.033493 296.295867161441 257.63191436841 32.6157454709726
 342 1 1 -0.063739 296.822382226484 257.484937955692 30.2638059925023
 343 1 2 -0.398381 296.648732999494 260.571937571319 30.7439867908293
 344 1 1 0.032144 296.553232549055 258.241811166593 31.4064062742108
 345 1 3 0.032313 295.98950976988 258.681383551086 33.6183260279611
 346 1 4 0.461698 296.085264983263 259.884451350166 32.9226866027376
 347 1 3 0.091945 296.451565065492 259.71413224894 31.5891050516068
 348 1 1 -0.10563 293.00058322342 253.776401967478 33.1810804283941
 349 1 5 -0.099376 296.635791352366 253.884069326511 31.8071295817327
 350 1 1 -0.043296 295.409360161925 253.476475925821 32.6770495463425
 351 1 1 -0.073043 294.133829845102 254.039642832787 32.3835720075739
 352 1 1 -0.117827 293.15550576242 252.917520545346 34.273593375515
 353 1 1 -0.037562 295.507991419182 252.575762745914 33.7698551386754
 354 1 1 -0.083705 294.371068416222 252.325431719596 34.5446160260488
 355 1 5 0.396 298.026753396182 253.568352059998 32.484427810203
 356 1 5 0.310495 296.517890640047 253.068549643743 30.4630308952322
 357 1 6 -0.130298 299.054240209323 254.132241460823 31.8075143353345
 358 1 6 -0.128745 298.297088960742 252.246801427584 32.5656848622169
 359 1 6 -0.120019 298.096551928065 254.060924770773 33.74216630033
 360 1 6 -0.104287 297.613317189796 253.169805628475 29.6814372670207
 361 1 6 -0.095507 295.460789793409 253.466721460485 29.7208537166635
 362 1 6 -0.104872 296.33827809941 251.748686253696 30.6990991414238
 363 1 3 0.456145 294.237527165059 251.536180759566 35.7941728540201
 364 1 3 0.550902 292.203501059109 252.535100251446 35.3530298737342
 365 1 4 0.015704 292.939484158955 251.755853461199 36.2371347355188
 366 1 2 -0.456801 295.127640143038 250.912986821724 36.3464886443706
 367 1 2 -0.487703 291.047395668801 252.907930362309 35.4604112265664
 368 1 1 -0.116566 292.472151697766 251.349724253828 37.5218238954478
 369 1 1 -0.050109 291.585301654084 250.255503468689 37.6624907834854
 370 1 1 0.154929 291.139868932859 249.891720312599 38.9581973537428
 371 1 1 0.041555 292.904197149202 252.069198207366 38.6593186110725
 372 1 1 -0.223109 292.479485162487 251.67275512843 39.9348462170083
 373 1 1 -0.080449 291.604185984904 250.590253389368 40.0972163640499
 374 1 5 -0.108008 293.817302330341 253.285875193241 38.5410456208322
 375 1 5 -0.182228 291.168556172954 250.207895131968 41.5101611046321
 376 1 5 -0.345523 291.091872707896 249.504560220779 36.4189922939473
 377 1 7 0.155183 296.112323190891 255.808739768766 33.7323754186664
 378 1 7 0.172904 297.063608678394 255.508155476972 29.4826565121041
 379 1 7 0.158028 297.005437613304 257.976399901773 29.3135066181416
 380 1 7 0.153129 292.042054769826 254.249530225423 32.9749312950357
 381 1 7 0.142914 294.024337941395 254.7213117539 31.5424838938715
 382 1 7 0.135531 296.437326972546 252.097622699503 34.0588428291949
 383 1 7 0.17765 292.827077199048 252.219321837607 40.8074299370823
 384 1 9 0.046541 294.822101300193 252.996437007954 38.2101119611948
 385 1 9 0.045238 293.92777720884 253.804822273245 39.5011196228629
 386 1 9 0.051941 293.416725028003 254.015275770532 37.8260449755886
 387 1 9 0.087961 290.084004477326 250.317449549994 41.6388794755113
 388 1 9 0.066782 291.646687577478 250.841501889903 42.267918332448
 389 1 9 0.075908 291.440324678736 249.169727962249 41.7435835263956
 390 1 9 0.105172 290.801961129823 248.468601346763 36.6298790366468
 391 1 9 0.115625 291.867049796987 249.438013774822 35.6458961478704
 392 1 9 0.140296 290.224121389777 250.014808064976 35.9778447818894
 393 1 1 -0.004194 288.937729154192 261.765513897282 30.6593647970776
 394 1 1 -0.097141 287.982770034075 262.814495354517 30.5683855066695
 395 1 1 -0.172015 287.878171321963 263.523416524988 29.337690884319
 396 1 2 -0.377994 291.384322224627 259.886181731285 30.3902057408535
 397 1 1 0.033493 289.810426990637 261.5407257148 29.5947821561898
 398 1 1 -0.063739 288.756845752191 263.262393742777 28.2625600630555
 399 1 2 -0.398381 291.146612772906 262.361773753116 26.4684128475446
 400 1 1 0.032144 289.73657396752 262.2791075454 28.4330633420113
 401 1 3 0.032313 290.998885709235 260.655883208351 29.5253710405754
 402 1 4 0.461698 291.590445166939 260.949363045799 28.2996464699591
 403 1 3 0.091945 290.87920883012 261.895952212057 27.5636484173044
 404 1 1 -0.10563 289.230614289453 262.465936547687 35.1186221689213
 405 1 5 -0.099376 287.20111056032 263.208714554839 31.8607983622176
 406 1 1 -0.043296 288.274244749348 263.276089230452 32.9894691182069
 407 1 1 -0.073043 288.130598920186 262.628516980773 34.2493109127231
 408 1 1 -0.117827 290.472280526131 262.969685135032 34.7136021972622
 409 1 1 -0.037562 289.521494497381 263.881557106136 32.6829289453948
 410 1 1 -0.083705 290.604320982659 263.679440671003 33.539273058137